 vasp.5.4.1p3 06Nov15 (build Nov 30 2015 07:53:06) gamma-only                   
  
 executed on     AMD-Shanghai_-O1 date 2016.03.15  20:51:53
 running on   32 total cores
 distrk:  each k-point on   32 cores,    1 groups
 distr:  one band on NCORES_PER_BAND=  16 cores,    2 groups


--------------------------------------------------------------------------------------------------------


 INCAR:
 POTCAR:   PAW_PBE C 08Apr2002                    
 POTCAR:   PAW_PBE O 08Apr2002                    
 POTCAR:   PAW_PBE H 15Jun2001                    

 ----------------------------------------------------------------------------- 
|                                                                             |
|           W    W    AA    RRRRR   N    N  II  N    N   GGGG   !!!           |
|           W    W   A  A   R    R  NN   N  II  NN   N  G    G  !!!           |
|           W    W  A    A  R    R  N N  N  II  N N  N  G       !!!           |
|           W WW W  AAAAAA  RRRRR   N  N N  II  N  N N  G  GGG   !            |
|           WW  WW  A    A  R   R   N   NN  II  N   NN  G    G                |
|           W    W  A    A  R    R  N    N  II  N    N   GGGG   !!!           |
|                                                                             |
|      For optimal performance we recommend to set                            |
|        NCORE= 4 - approx SQRT( number of cores)                             |
|      NCORE specifies how many cores store one orbital (NPAR=cpu/NCORE).     |
|      This setting can  greatly improve the performance of VASP for DFT.     |
|      The default, NPAR=number of cores might be grossly inefficient         |
|      on modern multi-core architectures or massively parallel machines.     |
|      Do your own testing !!!!                                               |
|      Unfortunately you need to use the default for GW and RPA calculations. |
|      (for HF NCORE is supported but not extensively tested yet)             |
|                                                                             |
 ----------------------------------------------------------------------------- 

 POTCAR:   PAW_PBE C 08Apr2002                    
   VRHFIN =C: s2p2                                                              
   LEXCH  = PE                                                                  
   EATOM  =   147.1560 eV,   10.8157 Ry                                         
                                                                                
   TITEL  = PAW_PBE C 08Apr2002                                                 
   LULTRA =        F    use ultrasoft PP ?                                      
   IUNSCR =        0    unscreen: 0-lin 1-nonlin 2-no                           
   RPACOR =     .000    partial core radius                                     
   POMASS =   12.011; ZVAL   =    4.000    mass and valenz                      
   RCORE  =    1.500    outmost cutoff radius                                   
   RWIGS  =    1.630; RWIGS  =     .863    wigner-seitz radius (au A)           
   ENMAX  =  400.000; ENMIN  =  300.000 eV                                      
   ICORE  =        2    local potential                                         
   LCOR   =        T    correct aug charges                                     
   LPAW   =        T    paw PP                                                  
   EAUG   =  644.873                                                            
   DEXC   =     .000                                                            
   RMAX   =    2.266    core radius for proj-oper                               
   RAUG   =    1.300    factor for augmentation sphere                          
   RDEP   =    1.501    radius for radial grids                                 
   RDEPT  =    1.300    core radius for aug-charge                              
   QCUT   =   -5.516; QGAM   =   11.032    optimization parameters              
                                                                                
   Description                                                                  
     l     E      TYP  RCUT    TYP  RCUT                                        
     0   .000     23  1.200                                                     
     0   .000     23  1.200                                                     
     1   .000     23  1.500                                                     
     1  2.500     23  1.500                                                     
     2   .000      7  1.500                                                     
  local pseudopotential read in
  atomic valenz-charges read in
  non local Contribution for L=           0  read in
    real space projection operators read in
  non local Contribution for L=           0  read in
    real space projection operators read in
  non local Contribution for L=           1  read in
    real space projection operators read in
  non local Contribution for L=           1  read in
    real space projection operators read in
    PAW grid and wavefunctions read in
 
   number of l-projection  operators is LMAX  =           4
   number of lm-projection operators is LMMAX =           8
 
 POTCAR:   PAW_PBE O 08Apr2002                    
   VRHFIN =O: s2p4                                                              
   LEXCH  = PE                                                                  
   EATOM  =   432.3788 eV,   31.7789 Ry                                         
                                                                                
   TITEL  = PAW_PBE O 08Apr2002                                                 
   LULTRA =        F    use ultrasoft PP ?                                      
   IUNSCR =        0    unscreen: 0-lin 1-nonlin 2-no                           
   RPACOR =     .000    partial core radius                                     
   POMASS =   16.000; ZVAL   =    6.000    mass and valenz                      
   RCORE  =    1.520    outmost cutoff radius                                   
   RWIGS  =    1.550; RWIGS  =     .820    wigner-seitz radius (au A)           
   ENMAX  =  400.000; ENMIN  =  300.000 eV                                      
   ICORE  =        2    local potential                                         
   LCOR   =        T    correct aug charges                                     
   LPAW   =        T    paw PP                                                  
   EAUG   =  605.392                                                            
   DEXC   =     .000                                                            
   RMAX   =    2.264    core radius for proj-oper                               
   RAUG   =    1.300    factor for augmentation sphere                          
   RDEP   =    1.550    radius for radial grids                                 
   QCUT   =   -5.520; QGAM   =   11.041    optimization parameters              
                                                                                
   Description                                                                  
     l     E      TYP  RCUT    TYP  RCUT                                        
     0   .000     23  1.200                                                     
     0  -.700     23  1.200                                                     
     1   .000     23  1.520                                                     
     1   .600     23  1.520                                                     
     2   .000      7  1.500                                                     
  local pseudopotential read in
  atomic valenz-charges read in
  non local Contribution for L=           0  read in
    real space projection operators read in
  non local Contribution for L=           0  read in
    real space projection operators read in
  non local Contribution for L=           1  read in
    real space projection operators read in
  non local Contribution for L=           1  read in
    real space projection operators read in
    PAW grid and wavefunctions read in
 
   number of l-projection  operators is LMAX  =           4
   number of lm-projection operators is LMMAX =           8
 
 POTCAR:   PAW_PBE H 15Jun2001                    
   VRHFIN =H: ultrasoft test                                                    
   LEXCH  = PE                                                                  
   EATOM  =    12.4884 eV,     .9179 Ry                                         
                                                                                
   TITEL  = PAW_PBE H 15Jun2001                                                 
   LULTRA =        F    use ultrasoft PP ?                                      
   IUNSCR =        0    unscreen: 0-lin 1-nonlin 2-no                           
   RPACOR =     .000    partial core radius                                     
   POMASS =    1.000; ZVAL   =    1.000    mass and valenz                      
   RCORE  =    1.100    outmost cutoff radius                                   
   RWIGS  =     .700; RWIGS  =     .370    wigner-seitz radius (au A)           
   ENMAX  =  250.000; ENMIN  =  200.000 eV                                      
   RCLOC  =     .701    cutoff for local pot                                    
   LCOR   =        T    correct aug charges                                     
   LPAW   =        T    paw PP                                                  
   EAUG   =  400.000                                                            
   RMAX   =    2.174    core radius for proj-oper                               
   RAUG   =    1.200    factor for augmentation sphere                          
   RDEP   =    1.112    radius for radial grids                                 
   QCUT   =   -5.749; QGAM   =   11.498    optimization parameters              
                                                                                
   Description                                                                  
     l     E      TYP  RCUT    TYP  RCUT                                        
     0   .000     23  1.100                                                     
     0   .500     23  1.100                                                     
     1  -.300     23  1.100                                                     
  local pseudopotential read in
  atomic valenz-charges read in
  non local Contribution for L=           0  read in
    real space projection operators read in
  non local Contribution for L=           0  read in
    real space projection operators read in
  non local Contribution for L=           1  read in
    real space projection operators read in
    PAW grid and wavefunctions read in
 
   number of l-projection  operators is LMAX  =           3
   number of lm-projection operators is LMMAX =           5
 
 PAW_PBE C 08Apr2002                    :
 energy of atom  1       EATOM= -147.1560
 kinetic energy error for atom=    0.0057 (will be added to EATOM!!)
 PAW_PBE O 08Apr2002                    :
 energy of atom  2       EATOM= -432.3788
 kinetic energy error for atom=    0.0168 (will be added to EATOM!!)
 PAW_PBE H 15Jun2001                    :
 energy of atom  3       EATOM=  -12.4884
 kinetic energy error for atom=    0.0004 (will be added to EATOM!!)
 
 
 POSCAR:  C  O  H                                
  positions in cartesian coordinates
  No initial velocities read in
 exchange correlation table for  LEXCH =        8
   RHO(1)=    0.500       N(1)  =     2000
   RHO(2)=  100.500       N(2)  =     4000
 


--------------------------------------------------------------------------------------------------------


 ion  position               nearest neighbor table
   1  0.444  0.494  0.493-   3 1.10   5 1.10   6 1.10   2 1.43
   2  0.524  0.485  0.453-   4 0.97   1 1.43
   3  0.444  0.557  0.521-   1 1.10
   4  0.525  0.430  0.427-   2 0.97
   5  0.392  0.490  0.448-   1 1.10
   6  0.434  0.448  0.543-   1 1.10
 

IMPORTANT INFORMATION: All symmetrisations will be switched off!
NOSYMM: (Re-)initialisation of all symmetry stuff for point group C_1.

 
 
 KPOINTS: KPOINTS created by Atomic Simulation Env

Automatic generation of k-mesh.
Space group operators:
 irot       det(A)        alpha          n_x          n_y          n_z        tau_x        tau_y        tau_z
    1     1.000000     0.000000     1.000000     0.000000     0.000000     0.000000     0.000000     0.000000
 
 Subroutine IBZKPT returns following result:
 ===========================================
 
 Found      1 irreducible k-points:
 
 Following reciprocal coordinates:
            Coordinates               Weight
  0.000000  0.000000  0.000000      1.000000
 
 Following cartesian coordinates:
            Coordinates               Weight
  0.000000  0.000000  0.000000      1.000000
 
 
 Subroutine IBZKPT_HF returns following result:
 ==============================================
 
 Found      1 k-points in 1st BZ
 the following      1 k-points will be used (e.g. in the exchange kernel)
 Following reciprocal coordinates:   # in IRBZ
  0.000000  0.000000  0.000000    1.00000000   1 t-inv F


--------------------------------------------------------------------------------------------------------




 Dimension of arrays:
   k-points           NKPTS =      1   k-points in BZ     NKDIM =      1   number of bands    NBANDS=     12
   number of dos      NEDOS =    301   number of ions     NIONS =      6
   non local maximal  LDIM  =      4   non local SUM 2l+1 LMDIM =      8
   total plane-waves  NPLWV = ******
   max r-space proj   IRMAX =      1   max aug-charges    IRDMAX=   6841
   dimension x,y,z NGX =   128 NGY =  128 NGZ =  128
   dimension x,y,z NGXF=   256 NGYF=  256 NGZF=  256
   support grid    NGXF=   256 NGYF=  256 NGZF=  256
   ions per type =               1   1   4
 NGX,Y,Z   is equivalent  to a cutoff of  13.30, 13.30, 13.30 a.u.
 NGXF,Y,Z  is equivalent  to a cutoff of  26.60, 26.60, 26.60 a.u.


 I would recommend the setting:
   dimension x,y,z NGX =   128 NGY =  128 NGZ =  128
 SYSTEM =  unknown system                          
 POSCAR =   C  O  H                                

 Startparameter for this run:
   NWRITE =      2    write-flag & timer
   PREC   = accura    normal or accurate (medium, high low for compatibility)
   ISTART =      0    job   : 0-new  1-cont  2-samecut
   ICHARG =      2    charge: 1-file 2-atom 10-const
   ISPIN  =      1    spin polarized calculation?
   LNONCOLLINEAR =      F non collinear calculations
   LSORBIT =      F    spin-orbit coupling
   INIWAV =      1    electr: 0-lowe 1-rand  2-diag
   LASPH  =      F    aspherical Exc in radial PAW
   METAGGA=      F    non-selfconsistent MetaGGA calc.

 Electronic Relaxation 1
   ENCUT  =  600.0 eV  44.10 Ry    6.64 a.u.  31.96 31.96 31.96*2*pi/ulx,y,z
   ENINI  =  600.0     initial cutoff
   ENAUG  =  644.9 eV  augmentation charge cutoff
   NELM   =    100;   NELMIN=  5; NELMDL=-12     # of ELM steps 
   EDIFF  = 0.1E-07   stopping-criterion for ELM
   LREAL  =      F    real-space projection
   NLSPLINE    = F    spline interpolate recip. space projectors
   LCOMPAT=      F    compatible to vasp.4.4
   GGA_COMPAT  = T    GGA compatible to vasp.4.4-vasp.4.6
   LMAXPAW     = -100 max onsite density
   LMAXMIX     =    2 max onsite mixed and CHGCAR
   VOSKOWN=      0    Vosko Wilk Nusair interpolation
   ROPT   =    0.00000   0.00000   0.00000
 Ionic relaxation
   EDIFFG = -.1E-02   stopping-criterion for IOM
   NSW    =    109    number of steps for IOM
   NBLOCK =      1;   KBLOCK =      1    inner block; outer block 
   IBRION =      5    ionic relax: 0-MD 1-quasi-New 2-CG
   NFREE  =      2    steps in history (QN), initial steepest desc. (CG)
   ISIF   =      2    stress and relaxation
   IWAVPR =     11    prediction:  0-non 1-charg 2-wave 3-comb
   ISYM   =      0    0-nonsym 1-usesym 2-fastsym
   LCORR  =      T    Harris-Foulkes like correction to forces

   POTIM  = 0.0200    time-step for ionic-motion
   TEIN   =    0.0    initial temperature
   TEBEG  =    0.0;   TEEND  =   0.0 temperature during run
   SMASS  =  -3.00    Nose mass-parameter (am)
   estimated Nose-frequenzy (Omega)   =  0.10E-29 period in steps =****** mass=  -0.585E-26a.u.
   SCALEE = 1.0000    scale energy and forces
   NPACO  =    256;   APACO  = 16.0  distance and # of slots for P.C.
   PSTRESS=    0.0 pullay stress

  Mass of Ions in am
   POMASS =  12.01 16.00  1.00
  Ionic Valenz
   ZVAL   =   4.00  6.00  1.00
  Atomic Wigner-Seitz radii
   RWIGS  =  -1.00 -1.00 -1.00
  virtual crystal weights 
   VCA    =   1.00  1.00  1.00
   NELECT =      14.0000    total number of electrons
   NUPDOWN=      -1.0000    fix difference up-down

 DOS related values:
   EMIN   =  10.00;   EMAX   =-10.00  energy-range for DOS
   EFERMI =   0.00
   ISMEAR =     0;   SIGMA  =   0.20  broadening in eV -4-tet -1-fermi 0-gaus

 Electronic relaxation 2 (details)
   IALGO  =     48    algorithm
   LDIAG  =      T    sub-space diagonalisation (order eigenvalues)
   LSUBROT=      F    optimize rotation matrix (better conditioning)
   TURBO    =      0    0=normal 1=particle mesh
   IRESTART =      0    0=no restart 2=restart with 2 vectors
   NREBOOT  =      0    no. of reboots
   NMIN     =      0    reboot dimension
   EREF     =   0.00    reference energy to select bands
   IMIX   =      4    mixing-type and parameters
     AMIX     =   0.40;   BMIX     =  1.00
     AMIX_MAG =   1.60;   BMIX_MAG =  1.00
     AMIN     =   0.10
     WC   =   100.;   INIMIX=   1;  MIXPRE=   1;  MAXMIX= -45

 Intra band minimization:
   WEIMIN = 0.0010     energy-eigenvalue tresh-hold
   EBREAK =  0.21E-09  absolut break condition
   DEPER  =   0.30     relativ break condition  

   TIME   =   0.40     timestep for ELM

  volume/ion in A,a.u.               =     682.67      4606.86
  Fermi-wavevector in a.u.,A,eV,Ry     =   0.246603  0.466011  0.827408  0.060813
  Thomas-Fermi vector in A             =   1.058894
 
 Write flags
   LWAVE  =      F    write WAVECAR
   LCHARG =      F    write CHGCAR
   LVTOT  =      F    write LOCPOT, total local potential
   LVHAR  =      F    write LOCPOT, Hartree potential only
   LELF   =      F    write electronic localiz. function (ELF)
   LORBIT =      0    0 simple, 1 ext, 2 COOP (PROOUT)


 Dipole corrections
   LMONO  =      F    monopole corrections only (constant potential shift)
   LDIPOL =      F    correct potential (dipole corrections)
   IDIPOL =      0    1-x, 2-y, 3-z, 4-all directions 
   EPSILON=  1.0000000 bulk dielectric constant

 Exchange correlation treatment:
   GGA     =    --    GGA type
   LEXCH   =     8    internal setting for exchange type
   VOSKOWN=      0    Vosko Wilk Nusair interpolation
   LHFCALC =     F    Hartree Fock is set to
   LHFONE  =     F    Hartree Fock one center treatment
   AEXX    =    0.0000 exact exchange contribution

 Linear response parameters
   LEPSILON=     F    determine dielectric tensor
   LRPA    =     F    only Hartree local field effects (RPA)
   LNABLA  =     F    use nabla operator in PAW spheres
   LVEL    =     F    velocity operator in full k-point grid
   LINTERFAST=   F  fast interpolation
   KINTER  =     0    interpolate to denser k-point grid
   CSHIFT  =0.1000    complex shift for real part using Kramers Kronig
   OMEGAMAX=  -1.0    maximum frequency
   DEG_THRESHOLD= 0.2000000E-02 threshold for treating states as degnerate
   RTIME   =    0.100 relaxation time in fs

 Orbital magnetization related:
   ORBITALMAG=     F  switch on orbital magnetization
   LCHIMAG   =     F  perturbation theory with respect to B field
   DQ        =  0.001000  dq finite difference perturbation B field



--------------------------------------------------------------------------------------------------------


 finite differences
 charge density and potential will be updated during run
 non-spin polarized calculation
 RMM-DIIS sequential band-by-band
 perform sub-space diagonalisation
    before iterative eigenvector-optimisation
 modified Broyden-mixing scheme, WC =      100.0
 initial mixing is a Kerker type mixing with AMIX =  0.4000 and BMIX =      1.0000
 Hartree-type preconditioning will be used
 using additional bands            5
 reciprocal scheme for non local part
 calculate Harris-corrections to forces 
   (improved forces if not selfconsistent)
 use gradient corrections 
 use of overlap-Matrix (Vanderbilt PP)
 Gauss-broadening in eV      SIGMA  =   0.20


--------------------------------------------------------------------------------------------------------


  energy-cutoff  :      600.00
  volume of cell :     4096.00
      direct lattice vectors                 reciprocal lattice vectors
    16.000000000  0.000000000  0.000000000     0.062500000  0.000000000  0.000000000
     0.000000000 16.000000000  0.000000000     0.000000000  0.062500000  0.000000000
     0.000000000  0.000000000 16.000000000     0.000000000  0.000000000  0.062500000

  length of vectors
    16.000000000 16.000000000 16.000000000     0.062500000  0.062500000  0.062500000


 
 k-points in units of 2pi/SCALE and weight: KPOINTS created by Atomic Simulation Env
   0.00000000  0.00000000  0.00000000       1.000
 
 k-points in reciprocal lattice and weights: KPOINTS created by Atomic Simulation Env
   0.00000000  0.00000000  0.00000000       1.000
 
 position of ions in fractional coordinates (direct lattice) 
   0.44406226  0.49439784  0.49278267
   0.52357118  0.48502955  0.45275418
   0.44371899  0.55686413  0.52118972
   0.52518938  0.43014737  0.42686339
   0.39175119  0.49048336  0.44788176
   0.43440699  0.44761842  0.54264910
 
 position of ions in cartesian coordinates  (Angst):
   7.10499612  7.91036549  7.88452266
   8.37713896  7.76047285  7.24406684
   7.09950385  8.90982608  8.33903560
   8.40303016  6.88235792  6.82981421
   6.26801907  7.84773380  7.16610817
   6.95051179  7.16189476  8.68238567
 


--------------------------------------------------------------------------------------------------------


 use parallel FFT for wavefunctions z direction half grid
 k-point  1 :   0.0000 0.0000 0.0000  plane waves:   68338

 maximum and minimum number of plane-waves per node :      4278     4264

 maximum number of plane-waves:     68338
 maximum index in each direction: 
   IXMAX=   31   IYMAX=   31   IZMAX=   31
   IXMIN=  -31   IYMIN=  -31   IZMIN=    0

 NGX is ok and might be reduce to 126
 NGY is ok and might be reduce to 126
 NGZ is ok and might be reduce to 126

 parallel 3D FFT for wavefunctions:
    minimum data exchange during FFTs selected (reduces bandwidth)
 parallel 3D FFT for charge:
    minimum data exchange during FFTs selected (reduces bandwidth)


 total amount of memory used by VASP on root node    91111. kBytes
========================================================================

   base      :      30000. kBytes
   nonl-proj :       1229. kBytes
   fftplans  :      20461. kBytes
   grid      :      39010. kBytes
   one-center:          1. kBytes
   wavefun   :        410. kBytes
 
     INWAV:  cpu time    0.0001: real time    0.0001
 Broyden mixing: mesh for mixing (old mesh)
   NGX = 63   NGY = 63   NGZ = 63
  (NGX  =256   NGY  =256   NGZ  =256)
  gives a total of 250047 points

 initial charge density was supplied:
 charge density of overlapping atoms calculated
 number of electron      14.0000000 magnetization 
 keeping initial charge density in first step


--------------------------------------------------------------------------------------------------------


 Maximum index for augmentation-charges          301 (set IRDMAX)


--------------------------------------------------------------------------------------------------------


 First call to EWALD:  gamma=   0.111
 Maximum number of real-space cells 3x 3x 3
 Maximum number of reciprocal cells 3x 3x 3

 FEWALD executed in parallel
    FEWALD:  cpu time    0.0155: real time    0.0156


----------------------------------------- Iteration     1(   1)  ---------------------------------------


    POTLOK:  cpu time    1.3597: real time    1.3941
    SETDIJ:  cpu time    0.0085: real time    0.0085
    EDDIAG:  cpu time    0.1458: real time    0.1676
  RMM-DIIS:  cpu time    0.2288: real time    0.2304
    ORTHCH:  cpu time    0.0032: real time    0.0032
       DOS:  cpu time    0.0003: real time    0.0003
    --------------------------------------------
      LOOP:  cpu time    1.7495: real time    1.8085

 eigenvalue-minimisations  :    12
 total energy-change (2. order) : 0.1989706E+03  (-0.1413240E+03)
 number of electron      14.0000000 magnetization 
 augmentation part       14.0000000 magnetization 

 Free energy of the ion-electron system (eV)
  ---------------------------------------------------
  alpha Z        PSCENC =         0.18207619
  Ewald energy   TEWEN  =       433.04530455
  -Hartree energ DENC   =      -901.53762732
  -exchange      EXHF   =         0.00000000
  -V(xc)+E(xc)   XCENC  =        50.54297170
  PAW double counting   =       286.95514855     -289.99134475
  entropy T*S    EENTRO =        -0.00000000
  eigenvalues    EBANDS =        -9.69015813
  atomic energy  EATOM  =       629.46422187
  Solvation  Ediel_sol  =         0.00000000
  ---------------------------------------------------
  free energy    TOTEN  =       198.97059266 eV

  energy without entropy =      198.97059266  energy(sigma->0) =      198.97059266


--------------------------------------------------------------------------------------------------------




----------------------------------------- Iteration     1(   2)  ---------------------------------------


    EDDIAG:  cpu time    0.1567: real time    0.1574
  RMM-DIIS:  cpu time    0.2409: real time    0.2412
    ORTHCH:  cpu time    0.0033: real time    0.0033
       DOS:  cpu time    0.0004: real time    0.0003
    --------------------------------------------
      LOOP:  cpu time    0.4024: real time    0.4041

 eigenvalue-minimisations  :    12
 total energy-change (2. order) :-0.2589690E+02  (-0.4073584E+02)
 number of electron      14.0000000 magnetization 
 augmentation part       14.0000000 magnetization 

 Free energy of the ion-electron system (eV)
  ---------------------------------------------------
  alpha Z        PSCENC =         0.18207619
  Ewald energy   TEWEN  =       433.04530455
  -Hartree energ DENC   =      -901.53762732
  -exchange      EXHF   =         0.00000000
  -V(xc)+E(xc)   XCENC  =        50.54297170
  PAW double counting   =       286.95514855     -289.99134475
  entropy T*S    EENTRO =        -0.14830499
  eigenvalues    EBANDS =       -35.43875368
  atomic energy  EATOM  =       629.46422187
  Solvation  Ediel_sol  =         0.00000000
  ---------------------------------------------------
  free energy    TOTEN  =       173.07369211 eV

  energy without entropy =      173.22199710  energy(sigma->0) =      173.14784461


--------------------------------------------------------------------------------------------------------




----------------------------------------- Iteration     1(   3)  ---------------------------------------


    EDDIAG:  cpu time    0.1132: real time    0.1134
  RMM-DIIS:  cpu time    0.2340: real time    0.2343
    ORTHCH:  cpu time    0.0032: real time    0.0032
       DOS:  cpu time    0.0003: real time    0.0003
    --------------------------------------------
      LOOP:  cpu time    0.3515: real time    0.3531

 eigenvalue-minimisations  :    12
 total energy-change (2. order) :-0.4032300E+02  (-0.4592438E+02)
 number of electron      14.0000000 magnetization 
 augmentation part       14.0000000 magnetization 

 Free energy of the ion-electron system (eV)
  ---------------------------------------------------
  alpha Z        PSCENC =         0.18207619
  Ewald energy   TEWEN  =       433.04530455
  -Hartree energ DENC   =      -901.53762732
  -exchange      EXHF   =         0.00000000
  -V(xc)+E(xc)   XCENC  =        50.54297170
  PAW double counting   =       286.95514855     -289.99134475
  entropy T*S    EENTRO =        -0.08675164
  eigenvalues    EBANDS =       -75.82331104
  atomic energy  EATOM  =       629.46422187
  Solvation  Ediel_sol  =         0.00000000
  ---------------------------------------------------
  free energy    TOTEN  =       132.75068811 eV

  energy without entropy =      132.83743975  energy(sigma->0) =      132.79406393


--------------------------------------------------------------------------------------------------------




----------------------------------------- Iteration     1(   4)  ---------------------------------------


    EDDIAG:  cpu time    0.1367: real time    0.1495
  RMM-DIIS:  cpu time    0.2310: real time    0.2313
    ORTHCH:  cpu time    0.0033: real time    0.0033
       DOS:  cpu time    0.0003: real time    0.0003
    --------------------------------------------
      LOOP:  cpu time    0.3734: real time    0.3876

 eigenvalue-minimisations  :    12
 total energy-change (2. order) :-0.4652454E+02  (-0.4174471E+02)
 number of electron      14.0000000 magnetization 
 augmentation part       14.0000000 magnetization 

 Free energy of the ion-electron system (eV)
  ---------------------------------------------------
  alpha Z        PSCENC =         0.18207619
  Ewald energy   TEWEN  =       433.04530455
  -Hartree energ DENC   =      -901.53762732
  -exchange      EXHF   =         0.00000000
  -V(xc)+E(xc)   XCENC  =        50.54297170
  PAW double counting   =       286.95514855     -289.99134475
  entropy T*S    EENTRO =        -0.04590083
  eigenvalues    EBANDS =      -122.38869961
  atomic energy  EATOM  =       629.46422187
  Solvation  Ediel_sol  =         0.00000000
  ---------------------------------------------------
  free energy    TOTEN  =        86.22615034 eV

  energy without entropy =       86.27205117  energy(sigma->0) =       86.24910076


--------------------------------------------------------------------------------------------------------




----------------------------------------- Iteration     1(   5)  ---------------------------------------


    EDDIAG:  cpu time    0.1120: real time    0.1187
  RMM-DIIS:  cpu time    0.2287: real time    0.2290
    ORTHCH:  cpu time    0.0030: real time    0.0030
       DOS:  cpu time    0.0002: real time    0.0002
    --------------------------------------------
      LOOP:  cpu time    0.3454: real time    0.3536

 eigenvalue-minimisations  :    12
 total energy-change (2. order) :-0.4444246E+02  (-0.4499953E+02)
 number of electron      14.0000000 magnetization 
 augmentation part       14.0000000 magnetization 

 Free energy of the ion-electron system (eV)
  ---------------------------------------------------
  alpha Z        PSCENC =         0.18207619
  Ewald energy   TEWEN  =       433.04530455
  -Hartree energ DENC   =      -901.53762732
  -exchange      EXHF   =         0.00000000
  -V(xc)+E(xc)   XCENC  =        50.54297170
  PAW double counting   =       286.95514855     -289.99134475
  entropy T*S    EENTRO =        -0.00303322
  eigenvalues    EBANDS =      -166.87402944
  atomic energy  EATOM  =       629.46422187
  Solvation  Ediel_sol  =         0.00000000
  ---------------------------------------------------
  free energy    TOTEN  =        41.78368812 eV

  energy without entropy =       41.78672134  energy(sigma->0) =       41.78520473


--------------------------------------------------------------------------------------------------------




----------------------------------------- Iteration     1(   6)  ---------------------------------------


    EDDIAG:  cpu time    0.1227: real time    0.1230
  RMM-DIIS:  cpu time    0.2613: real time    0.2617
    ORTHCH:  cpu time    0.0040: real time    0.0040
       DOS:  cpu time    0.0003: real time    0.0003
    --------------------------------------------
      LOOP:  cpu time    0.3892: real time    0.3911

 eigenvalue-minimisations  :    12
 total energy-change (2. order) :-0.3965810E+02  (-0.3687950E+02)
 number of electron      14.0000000 magnetization 
 augmentation part       14.0000000 magnetization 

 Free energy of the ion-electron system (eV)
  ---------------------------------------------------
  alpha Z        PSCENC =         0.18207619
  Ewald energy   TEWEN  =       433.04530455
  -Hartree energ DENC   =      -901.53762732
  -exchange      EXHF   =         0.00000000
  -V(xc)+E(xc)   XCENC  =        50.54297170
  PAW double counting   =       286.95514855     -289.99134475
  entropy T*S    EENTRO =        -0.09803445
  eigenvalues    EBANDS =      -206.43712480
  atomic energy  EATOM  =       629.46422187
  Solvation  Ediel_sol  =         0.00000000
  ---------------------------------------------------
  free energy    TOTEN  =         2.12559153 eV

  energy without entropy =        2.22362598  energy(sigma->0) =        2.17460876


--------------------------------------------------------------------------------------------------------




----------------------------------------- Iteration     1(   7)  ---------------------------------------


    EDDIAG:  cpu time    0.1021: real time    0.1024
  RMM-DIIS:  cpu time    0.2426: real time    0.2429
    ORTHCH:  cpu time    0.0043: real time    0.0043
       DOS:  cpu time    0.0002: real time    0.0002
    --------------------------------------------
      LOOP:  cpu time    0.3501: real time    0.3518

 eigenvalue-minimisations  :    12
 total energy-change (2. order) :-0.2419086E+02  (-0.1571930E+02)
 number of electron      14.0000000 magnetization 
 augmentation part       14.0000000 magnetization 

 Free energy of the ion-electron system (eV)
  ---------------------------------------------------
  alpha Z        PSCENC =         0.18207619
  Ewald energy   TEWEN  =       433.04530455
  -Hartree energ DENC   =      -901.53762732
  -exchange      EXHF   =         0.00000000
  -V(xc)+E(xc)   XCENC  =        50.54297170
  PAW double counting   =       286.95514855     -289.99134475
  entropy T*S    EENTRO =        -0.00000000
  eigenvalues    EBANDS =      -230.72602065
  atomic energy  EATOM  =       629.46422187
  Solvation  Ediel_sol  =         0.00000000
  ---------------------------------------------------
  free energy    TOTEN  =       -22.06526987 eV

  energy without entropy =      -22.06526987  energy(sigma->0) =      -22.06526987


--------------------------------------------------------------------------------------------------------




----------------------------------------- Iteration     1(   8)  ---------------------------------------


    EDDIAG:  cpu time    0.1745: real time    0.1749
  RMM-DIIS:  cpu time    0.2575: real time    0.2578
    ORTHCH:  cpu time    0.0029: real time    0.0029
       DOS:  cpu time    0.0003: real time    0.0003
    --------------------------------------------
      LOOP:  cpu time    0.4376: real time    0.4395

 eigenvalue-minimisations  :    12
 total energy-change (2. order) :-0.9804558E+01  (-0.9627234E+01)
 number of electron      14.0000000 magnetization 
 augmentation part       14.0000000 magnetization 

 Free energy of the ion-electron system (eV)
  ---------------------------------------------------
  alpha Z        PSCENC =         0.18207619
  Ewald energy   TEWEN  =       433.04530455
  -Hartree energ DENC   =      -901.53762732
  -exchange      EXHF   =         0.00000000
  -V(xc)+E(xc)   XCENC  =        50.54297170
  PAW double counting   =       286.95514855     -289.99134475
  entropy T*S    EENTRO =        -0.00000000
  eigenvalues    EBANDS =      -240.53057887
  atomic energy  EATOM  =       629.46422187
  Solvation  Ediel_sol  =         0.00000000
  ---------------------------------------------------
  free energy    TOTEN  =       -31.86982808 eV

  energy without entropy =      -31.86982808  energy(sigma->0) =      -31.86982808


--------------------------------------------------------------------------------------------------------




----------------------------------------- Iteration     1(   9)  ---------------------------------------


    EDDIAG:  cpu time    0.1598: real time    0.1863
  RMM-DIIS:  cpu time    0.4358: real time    0.4703
    ORTHCH:  cpu time    0.0035: real time    0.0035
       DOS:  cpu time    0.0002: real time    0.0002
    --------------------------------------------
      LOOP:  cpu time    0.5999: real time    0.6622

 eigenvalue-minimisations  :    24
 total energy-change (2. order) :-0.1581692E+01  (-0.1523247E+01)
 number of electron      14.0000000 magnetization 
 augmentation part       14.0000000 magnetization 

 Free energy of the ion-electron system (eV)
  ---------------------------------------------------
  alpha Z        PSCENC =         0.18207619
  Ewald energy   TEWEN  =       433.04530455
  -Hartree energ DENC   =      -901.53762732
  -exchange      EXHF   =         0.00000000
  -V(xc)+E(xc)   XCENC  =        50.54297170
  PAW double counting   =       286.95514855     -289.99134475
  entropy T*S    EENTRO =        -0.00000000
  eigenvalues    EBANDS =      -242.11227054
  atomic energy  EATOM  =       629.46422187
  Solvation  Ediel_sol  =         0.00000000
  ---------------------------------------------------
  free energy    TOTEN  =       -33.45151976 eV

  energy without entropy =      -33.45151976  energy(sigma->0) =      -33.45151976


--------------------------------------------------------------------------------------------------------




----------------------------------------- Iteration     1(  10)  ---------------------------------------


    EDDIAG:  cpu time    0.1247: real time    0.1253
  RMM-DIIS:  cpu time    0.4792: real time    0.4797
    ORTHCH:  cpu time    0.0050: real time    0.0050
       DOS:  cpu time    0.0001: real time    0.0001
    --------------------------------------------
      LOOP:  cpu time    0.6101: real time    0.6120

 eigenvalue-minimisations  :    27
 total energy-change (2. order) :-0.1365845E+00  (-0.1337125E+00)
 number of electron      14.0000000 magnetization 
 augmentation part       14.0000000 magnetization 

 Free energy of the ion-electron system (eV)
  ---------------------------------------------------
  alpha Z        PSCENC =         0.18207619
  Ewald energy   TEWEN  =       433.04530455
  -Hartree energ DENC   =      -901.53762732
  -exchange      EXHF   =         0.00000000
  -V(xc)+E(xc)   XCENC  =        50.54297170
  PAW double counting   =       286.95514855     -289.99134475
  entropy T*S    EENTRO =        -0.00000000
  eigenvalues    EBANDS =      -242.24885504
  atomic energy  EATOM  =       629.46422187
  Solvation  Ediel_sol  =         0.00000000
  ---------------------------------------------------
  free energy    TOTEN  =       -33.58810426 eV

  energy without entropy =      -33.58810426  energy(sigma->0) =      -33.58810426


--------------------------------------------------------------------------------------------------------




----------------------------------------- Iteration     1(  11)  ---------------------------------------


    EDDIAG:  cpu time    0.1510: real time    0.1522
  RMM-DIIS:  cpu time    0.4156: real time    0.4160
    ORTHCH:  cpu time    0.0024: real time    0.0033
       DOS:  cpu time    0.0002: real time    0.0002
    --------------------------------------------
      LOOP:  cpu time    0.5726: real time    0.5753

 eigenvalue-minimisations  :    24
 total energy-change (2. order) :-0.2692318E-02  (-0.2680686E-02)
 number of electron      14.0000000 magnetization 
 augmentation part       14.0000000 magnetization 

 Free energy of the ion-electron system (eV)
  ---------------------------------------------------
  alpha Z        PSCENC =         0.18207619
  Ewald energy   TEWEN  =       433.04530455
  -Hartree energ DENC   =      -901.53762732
  -exchange      EXHF   =         0.00000000
  -V(xc)+E(xc)   XCENC  =        50.54297170
  PAW double counting   =       286.95514855     -289.99134475
  entropy T*S    EENTRO =        -0.00000000
  eigenvalues    EBANDS =      -242.25154736
  atomic energy  EATOM  =       629.46422187
  Solvation  Ediel_sol  =         0.00000000
  ---------------------------------------------------
  free energy    TOTEN  =       -33.59079658 eV

  energy without entropy =      -33.59079658  energy(sigma->0) =      -33.59079658


--------------------------------------------------------------------------------------------------------




----------------------------------------- Iteration     1(  12)  ---------------------------------------


    EDDIAG:  cpu time    0.1299: real time    0.1302
  RMM-DIIS:  cpu time    0.4201: real time    0.4204
    ORTHCH:  cpu time    0.0076: real time    0.0076
       DOS:  cpu time    0.0002: real time    0.0002
    CHARGE:  cpu time    0.2680: real time    0.2683
    MIXING:  cpu time    0.0355: real time    0.0355
    --------------------------------------------
      LOOP:  cpu time    0.8635: real time    0.8660

 eigenvalue-minimisations  :    25
 total energy-change (2. order) :-0.4517918E-03  (-0.4445264E-03)
 number of electron      13.9999997 magnetization 
 augmentation part        0.9531225 magnetization 

 Broyden mixing:
  rms(total) = 0.95997E+00    rms(broyden)= 0.95972E+00
  rms(prec ) = 0.11031E+01
  weight for this iteration     100.00

 Free energy of the ion-electron system (eV)
  ---------------------------------------------------
  alpha Z        PSCENC =         0.18207619
  Ewald energy   TEWEN  =       433.04530455
  -Hartree energ DENC   =      -901.53762732
  -exchange      EXHF   =         0.00000000
  -V(xc)+E(xc)   XCENC  =        50.54297170
  PAW double counting   =       286.95514855     -289.99134475
  entropy T*S    EENTRO =        -0.00000000
  eigenvalues    EBANDS =      -242.25199915
  atomic energy  EATOM  =       629.46422187
  Solvation  Ediel_sol  =         0.00000000
  ---------------------------------------------------
  free energy    TOTEN  =       -33.59124837 eV

  energy without entropy =      -33.59124837  energy(sigma->0) =      -33.59124837


--------------------------------------------------------------------------------------------------------




----------------------------------------- Iteration     1(  13)  ---------------------------------------


    POTLOK:  cpu time    1.1776: real time    1.1780
    SETDIJ:  cpu time    0.0029: real time    0.0029
    EDDIAG:  cpu time    0.1499: real time    0.1501
  RMM-DIIS:  cpu time    0.3920: real time    0.3924
    ORTHCH:  cpu time    0.0035: real time    0.0035
       DOS:  cpu time    0.0002: real time    0.0002
    CHARGE:  cpu time    0.1816: real time    0.1817
    MIXING:  cpu time    0.0373: real time    0.0374
    --------------------------------------------
      LOOP:  cpu time    1.9461: real time    1.9484

 eigenvalue-minimisations  :    24
 total energy-change (2. order) : 0.2743973E+01  (-0.6755469E+00)
 number of electron      13.9999997 magnetization 
 augmentation part        0.8593481 magnetization 

 Broyden mixing:
  rms(total) = 0.44594E+00    rms(broyden)= 0.44589E+00
  rms(prec ) = 0.50537E+00
  weight for this iteration     100.00

 eigenvalues of (default mixing * dielectric matrix)
  average eigenvalue GAMMA=   1.2992
  1.2992

 Free energy of the ion-electron system (eV)
  ---------------------------------------------------
  alpha Z        PSCENC =         0.18207619
  Ewald energy   TEWEN  =       433.04530455
  -Hartree energ DENC   =      -934.48441891
  -exchange      EXHF   =         0.00000000
  -V(xc)+E(xc)   XCENC  =        52.32781731
  PAW double counting   =       350.23811943     -353.70117999
  entropy T*S    EENTRO =        -0.00000000
  eigenvalues    EBANDS =      -207.91921609
  atomic energy  EATOM  =       629.46422187
  Solvation  Ediel_sol  =         0.00000000
  ---------------------------------------------------
  free energy    TOTEN  =       -30.84727563 eV

  energy without entropy =      -30.84727563  energy(sigma->0) =      -30.84727563


--------------------------------------------------------------------------------------------------------




----------------------------------------- Iteration     1(  14)  ---------------------------------------


    POTLOK:  cpu time    1.1540: real time    1.1544
    SETDIJ:  cpu time    0.0048: real time    0.0048
    EDDIAG:  cpu time    0.1519: real time    0.1554
  RMM-DIIS:  cpu time    0.3912: real time    0.4016
    ORTHCH:  cpu time    0.0038: real time    0.0038
       DOS:  cpu time    0.0002: real time    0.0002
    CHARGE:  cpu time    0.1485: real time    0.1485
    MIXING:  cpu time    0.0355: real time    0.0355
    --------------------------------------------
      LOOP:  cpu time    1.8912: real time    1.9069

 eigenvalue-minimisations  :    24
 total energy-change (2. order) : 0.4982909E+00  (-0.1525070E+00)
 number of electron      13.9999997 magnetization 
 augmentation part        0.8300176 magnetization 

 Broyden mixing:
  rms(total) = 0.22033E+00    rms(broyden)= 0.22030E+00
  rms(prec ) = 0.24519E+00
  weight for this iteration     100.00

 eigenvalues of (default mixing * dielectric matrix)
  average eigenvalue GAMMA=   1.6822
  1.3813  1.9831

 Free energy of the ion-electron system (eV)
  ---------------------------------------------------
  alpha Z        PSCENC =         0.18207619
  Ewald energy   TEWEN  =       433.04530455
  -Hartree energ DENC   =      -950.77551740
  -exchange      EXHF   =         0.00000000
  -V(xc)+E(xc)   XCENC  =        53.30188229
  PAW double counting   =       383.38525497     -386.92732114
  entropy T*S    EENTRO =        -0.00000000
  eigenvalues    EBANDS =      -192.02488608
  atomic energy  EATOM  =       629.46422187
  Solvation  Ediel_sol  =         0.00000000
  ---------------------------------------------------
  free energy    TOTEN  =       -30.34898476 eV

  energy without entropy =      -30.34898475  energy(sigma->0) =      -30.34898476


--------------------------------------------------------------------------------------------------------




----------------------------------------- Iteration     1(  15)  ---------------------------------------


    POTLOK:  cpu time    1.1373: real time    1.1380
    SETDIJ:  cpu time    0.0028: real time    0.0028
    EDDIAG:  cpu time    0.1510: real time    0.1513
  RMM-DIIS:  cpu time    0.4177: real time    0.4180
    ORTHCH:  cpu time    0.0034: real time    0.0034
       DOS:  cpu time    0.0002: real time    0.0002
    CHARGE:  cpu time    0.1346: real time    0.1346
    MIXING:  cpu time    0.0425: real time    0.0426
    --------------------------------------------
      LOOP:  cpu time    1.8908: real time    1.8935

 eigenvalue-minimisations  :    24
 total energy-change (2. order) : 0.1365952E+00  (-0.2295515E-01)
 number of electron      13.9999997 magnetization 
 augmentation part        0.8319328 magnetization 

 Broyden mixing:
  rms(total) = 0.41890E-01    rms(broyden)= 0.41883E-01
  rms(prec ) = 0.58753E-01
  weight for this iteration     100.00

 eigenvalues of (default mixing * dielectric matrix)
  average eigenvalue GAMMA=   1.6663
  2.3052  1.3469  1.3469

 Free energy of the ion-electron system (eV)
  ---------------------------------------------------
  alpha Z        PSCENC =         0.18207619
  Ewald energy   TEWEN  =       433.04530455
  -Hartree energ DENC   =      -957.05615383
  -exchange      EXHF   =         0.00000000
  -V(xc)+E(xc)   XCENC  =        53.75450582
  PAW double counting   =       394.89820118     -398.37431722
  entropy T*S    EENTRO =        -0.00000000
  eigenvalues    EBANDS =      -186.12622814
  atomic energy  EATOM  =       629.46422187
  Solvation  Ediel_sol  =         0.00000000
  ---------------------------------------------------
  free energy    TOTEN  =       -30.21238958 eV

  energy without entropy =      -30.21238958  energy(sigma->0) =      -30.21238958


--------------------------------------------------------------------------------------------------------




----------------------------------------- Iteration     1(  16)  ---------------------------------------


    POTLOK:  cpu time    1.1388: real time    1.1399
    SETDIJ:  cpu time    0.0048: real time    0.0048
    EDDIAG:  cpu time    0.1232: real time    0.1541
  RMM-DIIS:  cpu time    0.4350: real time    0.4394
    ORTHCH:  cpu time    0.0029: real time    0.0029
       DOS:  cpu time    0.0002: real time    0.0002
    CHARGE:  cpu time    0.1411: real time    0.1412
    MIXING:  cpu time    0.0415: real time    0.0416
    --------------------------------------------
      LOOP:  cpu time    1.8888: real time    1.9264

 eigenvalue-minimisations  :    25
 total energy-change (2. order) : 0.1187345E-01  (-0.4355089E-02)
 number of electron      13.9999997 magnetization 
 augmentation part        0.8257626 magnetization 

 Broyden mixing:
  rms(total) = 0.21454E-01    rms(broyden)= 0.21449E-01
  rms(prec ) = 0.32832E-01
  weight for this iteration     100.00

 eigenvalues of (default mixing * dielectric matrix)
  average eigenvalue GAMMA=   1.6851
  2.1940  2.1940  1.1761  1.1761

 Free energy of the ion-electron system (eV)
  ---------------------------------------------------
  alpha Z        PSCENC =         0.18207619
  Ewald energy   TEWEN  =       433.04530455
  -Hartree energ DENC   =      -960.54617320
  -exchange      EXHF   =         0.00000000
  -V(xc)+E(xc)   XCENC  =        53.93135885
  PAW double counting   =       398.15184464     -401.63039878
  entropy T*S    EENTRO =        -0.00000000
  eigenvalues    EBANDS =      -182.79875025
  atomic energy  EATOM  =       629.46422187
  Solvation  Ediel_sol  =         0.00000000
  ---------------------------------------------------
  free energy    TOTEN  =       -30.20051613 eV

  energy without entropy =      -30.20051613  energy(sigma->0) =      -30.20051613


--------------------------------------------------------------------------------------------------------




----------------------------------------- Iteration     1(  17)  ---------------------------------------


    POTLOK:  cpu time    1.1356: real time    1.1361
    SETDIJ:  cpu time    0.0050: real time    0.0050
    EDDIAG:  cpu time    0.1558: real time    0.1596
  RMM-DIIS:  cpu time    0.4092: real time    0.4216
    ORTHCH:  cpu time    0.0042: real time    0.0042
       DOS:  cpu time    0.0002: real time    0.0002
    CHARGE:  cpu time    0.1538: real time    0.1541
    MIXING:  cpu time    0.0401: real time    0.0401
    --------------------------------------------
      LOOP:  cpu time    1.9052: real time    1.9235

 eigenvalue-minimisations  :    24
 total energy-change (2. order) :-0.2499946E-02  (-0.5865023E-03)
 number of electron      13.9999997 magnetization 
 augmentation part        0.8272235 magnetization 

 Broyden mixing:
  rms(total) = 0.11138E-01    rms(broyden)= 0.11137E-01
  rms(prec ) = 0.20347E-01
  weight for this iteration     100.00

 eigenvalues of (default mixing * dielectric matrix)
  average eigenvalue GAMMA=   1.7676
  2.8560  2.2573  1.1182  1.1182  1.4885

 Free energy of the ion-electron system (eV)
  ---------------------------------------------------
  alpha Z        PSCENC =         0.18207619
  Ewald energy   TEWEN  =       433.04530455
  -Hartree energ DENC   =      -961.15242260
  -exchange      EXHF   =         0.00000000
  -V(xc)+E(xc)   XCENC  =        53.90223984
  PAW double counting   =       394.76916630     -398.22892138
  entropy T*S    EENTRO =        -0.00000000
  eigenvalues    EBANDS =      -182.18468085
  atomic energy  EATOM  =       629.46422187
  Solvation  Ediel_sol  =         0.00000000
  ---------------------------------------------------
  free energy    TOTEN  =       -30.20301608 eV

  energy without entropy =      -30.20301608  energy(sigma->0) =      -30.20301608


--------------------------------------------------------------------------------------------------------




----------------------------------------- Iteration     1(  18)  ---------------------------------------


    POTLOK:  cpu time    1.1750: real time    1.1757
    SETDIJ:  cpu time    0.0045: real time    0.0045
    EDDIAG:  cpu time    0.1925: real time    0.1932
  RMM-DIIS:  cpu time    0.3861: real time    0.3873
    ORTHCH:  cpu time    0.0034: real time    0.0034
       DOS:  cpu time    0.0002: real time    0.0002
    CHARGE:  cpu time    0.1486: real time    0.1487
    MIXING:  cpu time    0.0361: real time    0.0361
    --------------------------------------------
      LOOP:  cpu time    1.9485: real time    1.9516

 eigenvalue-minimisations  :    24
 total energy-change (2. order) :-0.5442476E-03  (-0.4639796E-03)
 number of electron      13.9999997 magnetization 
 augmentation part        0.8262006 magnetization 

 Broyden mixing:
  rms(total) = 0.65895E-02    rms(broyden)= 0.65891E-02
  rms(prec ) = 0.11547E-01
  weight for this iteration     100.00

 eigenvalues of (default mixing * dielectric matrix)
  average eigenvalue GAMMA=   1.9890
  3.7550  2.4951  2.1418  1.0215  1.2605  1.2605

 Free energy of the ion-electron system (eV)
  ---------------------------------------------------
  alpha Z        PSCENC =         0.18207619
  Ewald energy   TEWEN  =       433.04530455
  -Hartree energ DENC   =      -963.16142026
  -exchange      EXHF   =         0.00000000
  -V(xc)+E(xc)   XCENC  =        53.97195775
  PAW double counting   =       395.51359706     -398.97498187
  entropy T*S    EENTRO =        -0.00000000
  eigenvalues    EBANDS =      -180.24431562
  atomic energy  EATOM  =       629.46422187
  Solvation  Ediel_sol  =         0.00000000
  ---------------------------------------------------
  free energy    TOTEN  =       -30.20356032 eV

  energy without entropy =      -30.20356032  energy(sigma->0) =      -30.20356032


--------------------------------------------------------------------------------------------------------




----------------------------------------- Iteration     1(  19)  ---------------------------------------


    POTLOK:  cpu time    1.1364: real time    1.1370
    SETDIJ:  cpu time    0.0043: real time    0.0043
    EDDIAG:  cpu time    0.1346: real time    0.1348
  RMM-DIIS:  cpu time    0.4193: real time    0.4197
    ORTHCH:  cpu time    0.0035: real time    0.0035
       DOS:  cpu time    0.0002: real time    0.0002
    CHARGE:  cpu time    0.1485: real time    0.1486
    MIXING:  cpu time    0.0360: real time    0.0360
    --------------------------------------------
      LOOP:  cpu time    1.8841: real time    1.8867

 eigenvalue-minimisations  :    25
 total energy-change (2. order) :-0.6176667E-02  (-0.6736486E-03)
 number of electron      13.9999997 magnetization 
 augmentation part        0.8237129 magnetization 

 Broyden mixing:
  rms(total) = 0.11240E-01    rms(broyden)= 0.11238E-01
  rms(prec ) = 0.13361E-01
  weight for this iteration     100.00

 eigenvalues of (default mixing * dielectric matrix)
  average eigenvalue GAMMA=   1.9306
  4.2105  2.4675  2.1618  1.5933  0.9999  0.9999  1.0816

 Free energy of the ion-electron system (eV)
  ---------------------------------------------------
  alpha Z        PSCENC =         0.18207619
  Ewald energy   TEWEN  =       433.04530455
  -Hartree energ DENC   =      -964.40402816
  -exchange      EXHF   =         0.00000000
  -V(xc)+E(xc)   XCENC  =        53.99431913
  PAW double counting   =       395.69676606     -399.16715463
  entropy T*S    EENTRO =        -0.00000000
  eigenvalues    EBANDS =      -179.02124200
  atomic energy  EATOM  =       629.46422187
  Solvation  Ediel_sol  =         0.00000000
  ---------------------------------------------------
  free energy    TOTEN  =       -30.20973699 eV

  energy without entropy =      -30.20973699  energy(sigma->0) =      -30.20973699


--------------------------------------------------------------------------------------------------------




----------------------------------------- Iteration     1(  20)  ---------------------------------------


    POTLOK:  cpu time    1.1381: real time    1.1391
    SETDIJ:  cpu time    0.0047: real time    0.0046
    EDDIAG:  cpu time    0.1494: real time    0.1497
  RMM-DIIS:  cpu time    0.3941: real time    0.3949
    ORTHCH:  cpu time    0.0033: real time    0.0034
       DOS:  cpu time    0.0002: real time    0.0002
    CHARGE:  cpu time    0.1476: real time    0.1476
    MIXING:  cpu time    0.0433: real time    0.0433
    --------------------------------------------
      LOOP:  cpu time    1.8816: real time    1.8853

 eigenvalue-minimisations  :    24
 total energy-change (2. order) :-0.2141183E-02  (-0.2720327E-03)
 number of electron      13.9999997 magnetization 
 augmentation part        0.8252613 magnetization 

 Broyden mixing:
  rms(total) = 0.25743E-02    rms(broyden)= 0.25721E-02
  rms(prec ) = 0.43843E-02
  weight for this iteration     100.00

 eigenvalues of (default mixing * dielectric matrix)
  average eigenvalue GAMMA=   2.1845
  5.5033  3.1650  2.1690  1.7431  1.7431  1.0315  1.0606  1.0606

 Free energy of the ion-electron system (eV)
  ---------------------------------------------------
  alpha Z        PSCENC =         0.18207619
  Ewald energy   TEWEN  =       433.04530455
  -Hartree energ DENC   =      -963.99012833
  -exchange      EXHF   =         0.00000000
  -V(xc)+E(xc)   XCENC  =        53.96884443
  PAW double counting   =       394.96577750     -398.42710997
  entropy T*S    EENTRO =        -0.00000000
  eigenvalues    EBANDS =      -179.42086441
  atomic energy  EATOM  =       629.46422187
  Solvation  Ediel_sol  =         0.00000000
  ---------------------------------------------------
  free energy    TOTEN  =       -30.21187817 eV

  energy without entropy =      -30.21187817  energy(sigma->0) =      -30.21187817


--------------------------------------------------------------------------------------------------------




----------------------------------------- Iteration     1(  21)  ---------------------------------------


    POTLOK:  cpu time    1.1945: real time    1.1954
    SETDIJ:  cpu time    0.0042: real time    0.0042
    EDDIAG:  cpu time    0.1451: real time    0.1453
  RMM-DIIS:  cpu time    0.4066: real time    0.4070
    ORTHCH:  cpu time    0.0045: real time    0.0044
       DOS:  cpu time    0.0002: real time    0.0002
    CHARGE:  cpu time    0.1501: real time    0.1501
    MIXING:  cpu time    0.0366: real time    0.0366
    --------------------------------------------
      LOOP:  cpu time    1.9430: real time    1.9463

 eigenvalue-minimisations  :    24
 total energy-change (2. order) :-0.3518038E-02  (-0.5494061E-04)
 number of electron      13.9999997 magnetization 
 augmentation part        0.8253746 magnetization 

 Broyden mixing:
  rms(total) = 0.18831E-02    rms(broyden)= 0.18829E-02
  rms(prec ) = 0.26423E-02
  weight for this iteration     100.00

 eigenvalues of (default mixing * dielectric matrix)
  average eigenvalue GAMMA=   2.1824
  6.0826  3.3329  2.2976  2.1196  1.6369  1.1087  1.0115  1.0259  1.0259

 Free energy of the ion-electron system (eV)
  ---------------------------------------------------
  alpha Z        PSCENC =         0.18207619
  Ewald energy   TEWEN  =       433.04530455
  -Hartree energ DENC   =      -964.12963663
  -exchange      EXHF   =         0.00000000
  -V(xc)+E(xc)   XCENC  =        53.96373388
  PAW double counting   =       395.11903642     -398.58050818
  entropy T*S    EENTRO =        -0.00000000
  eigenvalues    EBANDS =      -179.27962430
  atomic energy  EATOM  =       629.46422187
  Solvation  Ediel_sol  =         0.00000000
  ---------------------------------------------------
  free energy    TOTEN  =       -30.21539621 eV

  energy without entropy =      -30.21539621  energy(sigma->0) =      -30.21539621


--------------------------------------------------------------------------------------------------------




----------------------------------------- Iteration     1(  22)  ---------------------------------------


    POTLOK:  cpu time    1.1206: real time    1.1253
    SETDIJ:  cpu time    0.0135: real time    0.0135
    EDDIAG:  cpu time    0.1119: real time    0.1121
  RMM-DIIS:  cpu time    0.4696: real time    0.5119
    ORTHCH:  cpu time    0.0035: real time    0.0035
       DOS:  cpu time    0.0002: real time    0.0002
    CHARGE:  cpu time    0.1487: real time    0.1488
    MIXING:  cpu time    0.0412: real time    0.0412
    --------------------------------------------
      LOOP:  cpu time    1.9111: real time    1.9688

 eigenvalue-minimisations  :    25
 total energy-change (2. order) :-0.9503610E-03  (-0.1654028E-04)
 number of electron      13.9999997 magnetization 
 augmentation part        0.8252568 magnetization 

 Broyden mixing:
  rms(total) = 0.13699E-02    rms(broyden)= 0.13699E-02
  rms(prec ) = 0.18102E-02
  weight for this iteration     100.00

 eigenvalues of (default mixing * dielectric matrix)
  average eigenvalue GAMMA=   2.4245
  7.3901  4.1779  2.5051  2.1744  2.1744  1.7083  1.0534  1.0534  0.9503  1.0579

 Free energy of the ion-electron system (eV)
  ---------------------------------------------------
  alpha Z        PSCENC =         0.18207619
  Ewald energy   TEWEN  =       433.04530455
  -Hartree energ DENC   =      -964.19803179
  -exchange      EXHF   =         0.00000000
  -V(xc)+E(xc)   XCENC  =        53.96450073
  PAW double counting   =       395.19111289     -398.65257757
  entropy T*S    EENTRO =        -0.00000000
  eigenvalues    EBANDS =      -179.21295343
  atomic energy  EATOM  =       629.46422187
  Solvation  Ediel_sol  =         0.00000000
  ---------------------------------------------------
  free energy    TOTEN  =       -30.21634657 eV

  energy without entropy =      -30.21634657  energy(sigma->0) =      -30.21634657


--------------------------------------------------------------------------------------------------------




----------------------------------------- Iteration     1(  23)  ---------------------------------------


    POTLOK:  cpu time    1.1266: real time    1.1400
    SETDIJ:  cpu time    0.0048: real time    0.0048
    EDDIAG:  cpu time    0.1466: real time    0.1468
  RMM-DIIS:  cpu time    0.4224: real time    0.4230
    ORTHCH:  cpu time    0.0032: real time    0.0032
       DOS:  cpu time    0.0002: real time    0.0002
    CHARGE:  cpu time    0.1462: real time    0.1463
    MIXING:  cpu time    0.0445: real time    0.0550
    --------------------------------------------
      LOOP:  cpu time    1.8963: real time    1.9397

 eigenvalue-minimisations  :    24
 total energy-change (2. order) :-0.8192960E-03  (-0.1269099E-04)
 number of electron      13.9999997 magnetization 
 augmentation part        0.8250696 magnetization 

 Broyden mixing:
  rms(total) = 0.36448E-03    rms(broyden)= 0.36421E-03
  rms(prec ) = 0.55573E-03
  weight for this iteration     100.00

 eigenvalues of (default mixing * dielectric matrix)
  average eigenvalue GAMMA=   2.3868
  7.8915  4.4179  2.8040  2.3672  1.7512  1.7512  1.0480  1.0480  1.0010  1.0873
  1.0873

 Free energy of the ion-electron system (eV)
  ---------------------------------------------------
  alpha Z        PSCENC =         0.18207619
  Ewald energy   TEWEN  =       433.04530455
  -Hartree energ DENC   =      -964.25047342
  -exchange      EXHF   =         0.00000000
  -V(xc)+E(xc)   XCENC  =        53.96507474
  PAW double counting   =       395.22647153     -398.68885013
  entropy T*S    EENTRO =        -0.00000000
  eigenvalues    EBANDS =      -179.16099120
  atomic energy  EATOM  =       629.46422187
  Solvation  Ediel_sol  =         0.00000000
  ---------------------------------------------------
  free energy    TOTEN  =       -30.21716587 eV

  energy without entropy =      -30.21716587  energy(sigma->0) =      -30.21716587


--------------------------------------------------------------------------------------------------------




----------------------------------------- Iteration     1(  24)  ---------------------------------------


    POTLOK:  cpu time    1.1410: real time    1.1424
    SETDIJ:  cpu time    0.0044: real time    0.0044
    EDDIAG:  cpu time    0.1520: real time    0.1523
  RMM-DIIS:  cpu time    0.4720: real time    0.4727
    ORTHCH:  cpu time    0.0030: real time    0.0030
       DOS:  cpu time    0.0002: real time    0.0002
    CHARGE:  cpu time    0.1522: real time    0.1523
    MIXING:  cpu time    0.0392: real time    0.0401
    --------------------------------------------
      LOOP:  cpu time    1.9663: real time    1.9736

 eigenvalue-minimisations  :    26
 total energy-change (2. order) :-0.1355130E-03  (-0.2852936E-05)
 number of electron      13.9999997 magnetization 
 augmentation part        0.8249327 magnetization 

 Broyden mixing:
  rms(total) = 0.73531E-03    rms(broyden)= 0.73519E-03
  rms(prec ) = 0.88091E-03
  weight for this iteration     100.00

 eigenvalues of (default mixing * dielectric matrix)
  average eigenvalue GAMMA=   2.5355
  8.5408  5.1743  2.9238  2.5420  2.5420  1.8346  1.8346  1.0628  1.0628  1.0302
  1.0036  0.8748

 Free energy of the ion-electron system (eV)
  ---------------------------------------------------
  alpha Z        PSCENC =         0.18207619
  Ewald energy   TEWEN  =       433.04530455
  -Hartree energ DENC   =      -964.26564801
  -exchange      EXHF   =         0.00000000
  -V(xc)+E(xc)   XCENC  =        53.96537320
  PAW double counting   =       395.22958362     -398.69210632
  entropy T*S    EENTRO =        -0.00000000
  eigenvalues    EBANDS =      -179.14610648
  atomic energy  EATOM  =       629.46422187
  Solvation  Ediel_sol  =         0.00000000
  ---------------------------------------------------
  free energy    TOTEN  =       -30.21730138 eV

  energy without entropy =      -30.21730138  energy(sigma->0) =      -30.21730138


--------------------------------------------------------------------------------------------------------




----------------------------------------- Iteration     1(  25)  ---------------------------------------


    POTLOK:  cpu time    1.1153: real time    1.1162
    SETDIJ:  cpu time    0.0041: real time    0.0041
    EDDIAG:  cpu time    0.1190: real time    0.1317
  RMM-DIIS:  cpu time    0.3850: real time    0.3853
    ORTHCH:  cpu time    0.0035: real time    0.0035
       DOS:  cpu time    0.0002: real time    0.0002
    CHARGE:  cpu time    0.1381: real time    0.1382
    MIXING:  cpu time    0.0404: real time    0.0404
    --------------------------------------------
      LOOP:  cpu time    1.8069: real time    1.8224

 eigenvalue-minimisations  :    24
 total energy-change (2. order) :-0.1385233E-03  (-0.1616809E-05)
 number of electron      13.9999997 magnetization 
 augmentation part        0.8250512 magnetization 

 Broyden mixing:
  rms(total) = 0.14174E-03    rms(broyden)= 0.14157E-03
  rms(prec ) = 0.19060E-03
  weight for this iteration     100.00

 eigenvalues of (default mixing * dielectric matrix)
  average eigenvalue GAMMA=   2.4544
  8.8444  5.2887  3.2859  2.4836  2.2996  1.7592  1.7592  1.1133  1.1133  1.0297
  1.0297  0.9927  0.9073

 Free energy of the ion-electron system (eV)
  ---------------------------------------------------
  alpha Z        PSCENC =         0.18207619
  Ewald energy   TEWEN  =       433.04530455
  -Hartree energ DENC   =      -964.22793208
  -exchange      EXHF   =         0.00000000
  -V(xc)+E(xc)   XCENC  =        53.96354211
  PAW double counting   =       395.18790582     -398.65002699
  entropy T*S    EENTRO =        -0.00000000
  eigenvalues    EBANDS =      -179.18253137
  atomic energy  EATOM  =       629.46422187
  Solvation  Ediel_sol  =         0.00000000
  ---------------------------------------------------
  free energy    TOTEN  =       -30.21743991 eV

  energy without entropy =      -30.21743991  energy(sigma->0) =      -30.21743991


--------------------------------------------------------------------------------------------------------




----------------------------------------- Iteration     1(  26)  ---------------------------------------


    POTLOK:  cpu time    1.0847: real time    1.0852
    SETDIJ:  cpu time    0.0056: real time    0.0056
    EDDIAG:  cpu time    0.1723: real time    0.1860
  RMM-DIIS:  cpu time    0.4163: real time    0.4296
    ORTHCH:  cpu time    0.0033: real time    0.0033
       DOS:  cpu time    0.0002: real time    0.0002
    CHARGE:  cpu time    0.1379: real time    0.1379
    MIXING:  cpu time    0.0409: real time    0.0410
    --------------------------------------------
      LOOP:  cpu time    1.8623: real time    1.8912

 eigenvalue-minimisations  :    24
 total energy-change (2. order) :-0.1465899E-04  (-0.8323612E-07)
 number of electron      13.9999997 magnetization 
 augmentation part        0.8250634 magnetization 

 Broyden mixing:
  rms(total) = 0.10810E-03    rms(broyden)= 0.10808E-03
  rms(prec ) = 0.15090E-03
  weight for this iteration     100.00

 eigenvalues of (default mixing * dielectric matrix)
  average eigenvalue GAMMA=   2.5850
  9.2824  5.8298  3.7631  3.0452  2.3166  2.3166  1.7528  1.7528  1.0615  1.0615
  1.0553  1.0553  0.9484  0.9484

 Free energy of the ion-electron system (eV)
  ---------------------------------------------------
  alpha Z        PSCENC =         0.18207619
  Ewald energy   TEWEN  =       433.04530455
  -Hartree energ DENC   =      -964.23186383
  -exchange      EXHF   =         0.00000000
  -V(xc)+E(xc)   XCENC  =        53.96363001
  PAW double counting   =       395.18779295     -398.64994812
  entropy T*S    EENTRO =        -0.00000000
  eigenvalues    EBANDS =      -179.17866817
  atomic energy  EATOM  =       629.46422187
  Solvation  Ediel_sol  =         0.00000000
  ---------------------------------------------------
  free energy    TOTEN  =       -30.21745456 eV

  energy without entropy =      -30.21745456  energy(sigma->0) =      -30.21745456


--------------------------------------------------------------------------------------------------------




----------------------------------------- Iteration     1(  27)  ---------------------------------------


    POTLOK:  cpu time    1.1258: real time    1.1264
    SETDIJ:  cpu time    0.0064: real time    0.0064
    EDDIAG:  cpu time    0.1331: real time    0.1334
  RMM-DIIS:  cpu time    0.3889: real time    0.3902
    ORTHCH:  cpu time    0.0034: real time    0.0034
       DOS:  cpu time    0.0002: real time    0.0002
    CHARGE:  cpu time    0.1448: real time    0.1449
    MIXING:  cpu time    0.0432: real time    0.0433
    --------------------------------------------
      LOOP:  cpu time    1.8482: real time    1.8504

 eigenvalue-minimisations  :    24
 total energy-change (2. order) :-0.3158559E-04  (-0.7075167E-07)
 number of electron      13.9999997 magnetization 
 augmentation part        0.8250534 magnetization 

 Broyden mixing:
  rms(total) = 0.48364E-04    rms(broyden)= 0.48357E-04
  rms(prec ) = 0.65549E-04
  weight for this iteration     100.00

 eigenvalues of (default mixing * dielectric matrix)
  average eigenvalue GAMMA=   2.5185
  9.3958  5.8671  4.1435  2.7598  2.4253  1.8309  1.8309  1.6824  1.6824  1.0534
  1.0534  1.1549  0.9863  0.9863  0.9254

 Free energy of the ion-electron system (eV)
  ---------------------------------------------------
  alpha Z        PSCENC =         0.18207619
  Ewald energy   TEWEN  =       433.04530455
  -Hartree energ DENC   =      -964.23449722
  -exchange      EXHF   =         0.00000000
  -V(xc)+E(xc)   XCENC  =        53.96363356
  PAW double counting   =       395.19852942     -398.66070855
  entropy T*S    EENTRO =        -0.00000000
  eigenvalues    EBANDS =      -179.17604598
  atomic energy  EATOM  =       629.46422187
  Solvation  Ediel_sol  =         0.00000000
  ---------------------------------------------------
  free energy    TOTEN  =       -30.21748615 eV

  energy without entropy =      -30.21748615  energy(sigma->0) =      -30.21748615


--------------------------------------------------------------------------------------------------------




----------------------------------------- Iteration     1(  28)  ---------------------------------------


    POTLOK:  cpu time    1.1906: real time    1.1913
    SETDIJ:  cpu time    0.0099: real time    0.0099
    EDDIAG:  cpu time    0.1459: real time    0.1461
  RMM-DIIS:  cpu time    0.4383: real time    0.4387
    ORTHCH:  cpu time    0.0035: real time    0.0035
       DOS:  cpu time    0.0002: real time    0.0002
    CHARGE:  cpu time    0.1462: real time    0.1462
    MIXING:  cpu time    0.0459: real time    0.0459
    --------------------------------------------
      LOOP:  cpu time    1.9814: real time    1.9840

 eigenvalue-minimisations  :    24
 total energy-change (2. order) :-0.4340936E-05  (-0.1420759E-07)
 number of electron      13.9999997 magnetization 
 augmentation part        0.8250643 magnetization 

 Broyden mixing:
  rms(total) = 0.74340E-04    rms(broyden)= 0.74334E-04
  rms(prec ) = 0.87486E-04
  weight for this iteration     100.00

 eigenvalues of (default mixing * dielectric matrix)
  average eigenvalue GAMMA=   2.6031
  9.4636  6.3675  4.7169  3.3084  2.7282  2.3770  1.8502  1.8502  1.8252  1.0604
  1.0604  1.0871  1.0871  0.9682  0.9682  0.9307

 Free energy of the ion-electron system (eV)
  ---------------------------------------------------
  alpha Z        PSCENC =         0.18207619
  Ewald energy   TEWEN  =       433.04530455
  -Hartree energ DENC   =      -964.23524379
  -exchange      EXHF   =         0.00000000
  -V(xc)+E(xc)   XCENC  =        53.96365087
  PAW double counting   =       395.19373877     -398.65589229
  entropy T*S    EENTRO =        -0.00000000
  eigenvalues    EBANDS =      -179.17534665
  atomic energy  EATOM  =       629.46422187
  Solvation  Ediel_sol  =         0.00000000
  ---------------------------------------------------
  free energy    TOTEN  =       -30.21749049 eV

  energy without entropy =      -30.21749049  energy(sigma->0) =      -30.21749049


--------------------------------------------------------------------------------------------------------




----------------------------------------- Iteration     1(  29)  ---------------------------------------


    POTLOK:  cpu time    1.1846: real time    1.1851
    SETDIJ:  cpu time    0.0093: real time    0.0093
    EDDIAG:  cpu time    0.1198: real time    0.1512
  RMM-DIIS:  cpu time    0.3756: real time    0.3843
    ORTHCH:  cpu time    0.0029: real time    0.0029
       DOS:  cpu time    0.0002: real time    0.0002
    CHARGE:  cpu time    0.1373: real time    0.1374
    MIXING:  cpu time    0.0447: real time    0.0448
    --------------------------------------------
      LOOP:  cpu time    1.8755: real time    1.9175

 eigenvalue-minimisations  :    24
 total energy-change (2. order) :-0.6430262E-05  (-0.2138714E-07)
 number of electron      13.9999997 magnetization 
 augmentation part        0.8250520 magnetization 

 Broyden mixing:
  rms(total) = 0.17675E-04    rms(broyden)= 0.17654E-04
  rms(prec ) = 0.22301E-04
  weight for this iteration     100.00

 eigenvalues of (default mixing * dielectric matrix)
  average eigenvalue GAMMA=   2.5861
  9.5473  6.6273  5.0568  3.4293  2.6632  2.3487  2.2610  1.7092  1.7092  1.5021
  1.0624  1.0624  1.0688  1.0149  1.0149  0.9434  0.9434

 Free energy of the ion-electron system (eV)
  ---------------------------------------------------
  alpha Z        PSCENC =         0.18207619
  Ewald energy   TEWEN  =       433.04530455
  -Hartree energ DENC   =      -964.23868015
  -exchange      EXHF   =         0.00000000
  -V(xc)+E(xc)   XCENC  =        53.96380484
  PAW double counting   =       395.19838648     -398.66058941
  entropy T*S    EENTRO =        -0.00000000
  eigenvalues    EBANDS =      -179.17202129
  atomic energy  EATOM  =       629.46422187
  Solvation  Ediel_sol  =         0.00000000
  ---------------------------------------------------
  free energy    TOTEN  =       -30.21749692 eV

  energy without entropy =      -30.21749692  energy(sigma->0) =      -30.21749692


--------------------------------------------------------------------------------------------------------




----------------------------------------- Iteration     1(  30)  ---------------------------------------


    POTLOK:  cpu time    1.1913: real time    1.1924
    SETDIJ:  cpu time    0.0061: real time    0.0062
    EDDIAG:  cpu time    0.1243: real time    0.1618
  RMM-DIIS:  cpu time    0.3123: real time    0.3126
    ORTHCH:  cpu time    0.0036: real time    0.0036
       DOS:  cpu time    0.0002: real time    0.0002
    CHARGE:  cpu time    0.1469: real time    0.1469
    MIXING:  cpu time    0.0445: real time    0.0445
    --------------------------------------------
      LOOP:  cpu time    1.8304: real time    1.8706

 eigenvalue-minimisations  :    18
 total energy-change (2. order) :-0.1334246E-05  (-0.1603027E-08)
 number of electron      13.9999997 magnetization 
 augmentation part        0.8250492 magnetization 

 Broyden mixing:
  rms(total) = 0.25760E-04    rms(broyden)= 0.25758E-04
  rms(prec ) = 0.29598E-04
  weight for this iteration     100.00

 eigenvalues of (default mixing * dielectric matrix)
  average eigenvalue GAMMA=   2.6560
  9.6670  7.1997  5.3984  3.9072  2.9273  2.4999  2.4999  1.8645  1.8645  1.7699
  1.0573  1.0573  1.0972  1.0972  1.0119  0.9504  0.9693  0.9693

 Free energy of the ion-electron system (eV)
  ---------------------------------------------------
  alpha Z        PSCENC =         0.18207619
  Ewald energy   TEWEN  =       433.04530455
  -Hartree energ DENC   =      -964.23865063
  -exchange      EXHF   =         0.00000000
  -V(xc)+E(xc)   XCENC  =        53.96381210
  PAW double counting   =       395.19835812     -398.66056941
  entropy T*S    EENTRO =        -0.00000000
  eigenvalues    EBANDS =      -179.17205105
  atomic energy  EATOM  =       629.46422187
  Solvation  Ediel_sol  =         0.00000000
  ---------------------------------------------------
  free energy    TOTEN  =       -30.21749826 eV

  energy without entropy =      -30.21749826  energy(sigma->0) =      -30.21749826


--------------------------------------------------------------------------------------------------------




----------------------------------------- Iteration     1(  31)  ---------------------------------------


    POTLOK:  cpu time    1.2778: real time    1.2787
    SETDIJ:  cpu time    0.0084: real time    0.0084
    EDDIAG:  cpu time    0.1825: real time    0.1833
  RMM-DIIS:  cpu time    0.3284: real time    0.3287
    ORTHCH:  cpu time    0.0032: real time    0.0032
       DOS:  cpu time    0.0002: real time    0.0002
    CHARGE:  cpu time    0.1478: real time    0.1479
    MIXING:  cpu time    0.0466: real time    0.0466
    --------------------------------------------
      LOOP:  cpu time    1.9968: real time    2.0018

 eigenvalue-minimisations  :    19
 total energy-change (2. order) :-0.8859809E-06  (-0.1803308E-08)
 number of electron      13.9999997 magnetization 
 augmentation part        0.8250519 magnetization 

 Broyden mixing:
  rms(total) = 0.46641E-05    rms(broyden)= 0.46605E-05
  rms(prec ) = 0.58103E-05
  weight for this iteration     100.00

 eigenvalues of (default mixing * dielectric matrix)
  average eigenvalue GAMMA=   2.5823
  9.7050  7.2498  5.4242  3.9708  2.7053  2.7053  2.2851  2.2851  1.7493  1.7493
  1.0504  1.0504  1.1002  1.1002  1.0856  1.0856  0.9502  0.9502  0.8621

 Free energy of the ion-electron system (eV)
  ---------------------------------------------------
  alpha Z        PSCENC =         0.18207619
  Ewald energy   TEWEN  =       433.04530455
  -Hartree energ DENC   =      -964.23746209
  -exchange      EXHF   =         0.00000000
[...]


 VOLUME and BASIS-vectors are now :
 -----------------------------------------------------------------------------
  energy-cutoff  :      600.00
  volume of cell :     4096.00
      direct lattice vectors                 reciprocal lattice vectors
    16.000000000  0.000000000  0.000000000     0.062500000  0.000000000  0.000000000
     0.000000000 16.000000000  0.000000000     0.000000000  0.062500000  0.000000000
     0.000000000  0.000000000 16.000000000     0.000000000  0.000000000  0.062500000

  length of vectors
    16.000000000 16.000000000 16.000000000     0.062500000  0.062500000  0.062500000


 FORCES acting on ions
    electron-ion (+dipol)            ewald-force                    non-local-force                 convergence-correction
 -----------------------------------------------------------------------------------------------
   0.111E+03 -.168E+02 -.571E+02   -.116E+03 0.178E+02 0.595E+02   0.490E+01 -.734E+00 -.277E+01   0.864E-05 0.538E-05 -.333E-05
   -.159E+03 -.249E+02 0.601E+02   0.192E+03 0.583E+02 -.596E+02   -.329E+02 -.334E+02 -.517E+00   -.564E-05 0.617E-05 0.534E-05
   0.115E+02 -.582E+02 -.315E+02   -.115E+02 0.634E+02 0.339E+02   0.370E-01 -.520E+01 -.236E+01   0.116E-05 -.214E-05 -.207E-05
   -.164E+02 0.856E+02 0.466E+02   0.169E+02 -.931E+02 -.503E+02   -.516E+00 0.748E+01 0.366E+01   -.539E-07 0.306E-05 0.145E-05
   0.568E+02 0.154E+01 0.342E+02   -.609E+02 -.177E+01 -.377E+02   0.420E+01 0.275E+00 0.357E+01   0.364E-05 0.116E-05 0.184E-05
   0.194E+02 0.404E+02 -.498E+02   -.203E+02 -.446E+02 0.542E+02   0.827E+00 0.392E+01 -.412E+01   0.153E-05 0.260E-05 -.251E-05
 -----------------------------------------------------------------------------------------------
   0.235E+02 0.276E+02 0.253E+01   -.391E-13 0.711E-14 0.000E+00   -.235E+02 -.276E+02 -.253E+01   0.928E-05 0.162E-04 0.720E-06
 
 
 POSITION                                       TOTAL-FORCE (eV/Angst)
 -----------------------------------------------------------------------------------
      7.10500      7.91037      7.88452         0.026676      0.238159     -0.328094
      8.37714      7.76047      7.24407         0.027124      0.010051     -0.022162
      7.09950      8.90983      8.33904        -0.003899     -0.017477      0.019649
      8.40303      6.88236      6.82981         0.000863      0.001075      0.001204
      6.26802      7.84773      7.16611         0.000118      0.031185     -0.025949
      6.95051      7.16189      8.66239        -0.050882     -0.262992      0.355352
 -----------------------------------------------------------------------------------
    total drift:                               -0.000126      0.000026     -0.000134


--------------------------------------------------------------------------------------------------------



  FREE ENERGIE OF THE ION-ELECTRON SYSTEM (eV)
  ---------------------------------------------------
  free  energy   TOTEN  =       -30.24927178 eV

  energy  without entropy=      -30.24927178  energy(sigma->0) =      -30.24927178
 
 d Force =-0.3588229E-03[-0.142E-01, 0.135E-01]  d Energy =-0.9053532E-04-0.268E-03
 d Force =-0.2145811E+01[-0.217E+01,-0.212E+01]  d Ewald  =-0.2146020E+01 0.210E-03


--------------------------------------------------------------------------------------------------------


    POTLOK:  cpu time    1.1874: real time    1.1887


--------------------------------------------------------------------------------------------------------


 Finite differences progress:
  Degree of freedom:  18/ 18
  Displacement:        2/  2
  Total:              36/ 36
 
 SECOND DERIVATIVES (NOT SYMMETRIZED)
 ------------------------------------
               1X          1Y          1Z          2X          2Y          2Z          3X          3Y          3Z          4X          4Y          4Z          5X          5Y          5Z          6X          6Y          6Z 
  1X   -43.185678   -1.165147   -3.940734   17.807637   -2.680728   -6.846734    4.174251    0.474193    0.360522    0.851607    0.694588   -0.008965   15.865736    1.181142   11.607126    4.486447    1.495952   -1.171215
  1Y    -1.174025  -54.368619   -1.141470    1.055180    7.896066    0.701703    1.463024   25.306550    8.770812   -3.546785    0.465720    1.749561    1.049290    4.825205    1.138244    1.153315   15.875078  -11.218849
  1Z    -3.948212   -1.105089  -49.457961   -5.107031    2.375394    8.723945    0.808890    9.178809    8.278410   -1.953109   -0.154193    0.926094   11.289251    0.983935   15.607977   -1.089788  -11.278855   15.921534
  2X    17.811203    1.047607   -5.130913  -26.732289    1.696927   11.034086    0.709150   -0.427694   -0.586273    3.073026   -1.876327   -2.137086    3.514646   -0.496892   -1.803471    1.624264    0.056379   -1.376344
  2Y    -2.674052    7.898666    2.375525    1.696018  -46.730626  -20.434326   -3.128522    0.109039    1.534206    2.476156   39.908307   17.125090   -0.145062   -0.301949   -0.113654    1.775463   -0.883438   -0.486842
  2Z    -6.823257    0.702798    8.724558   11.009944  -20.340904  -18.195075   -1.812755    0.319072    0.798958   -0.137981   18.987374    8.989433    0.639773   -0.101546   -1.389865   -2.875723    0.433206    1.071991
  3X     4.173599    1.462772    0.809487    0.707039   -3.127402   -1.812705   -5.237990   -0.209162    0.391603    0.566903   -0.184513   -0.347069   -0.116692    1.927594    0.758374   -0.092859    0.130710    0.200310
  3Y     0.473320   25.306058    9.214909   -0.425982    0.106142    0.317351   -0.209083  -26.850236  -10.183024   -0.012818   -0.213570   -0.082503    0.012573    0.008837   -0.106088    0.161990    1.642769    0.839355
  3Z     0.360455    8.731534    8.277700   -0.584495    1.532696    0.796747    0.391517  -10.147331   -8.922823   -0.273080   -0.002571    0.094067    0.119027    1.843749    0.704138   -0.013425   -1.958077   -0.949830
  4X     0.851103   -3.546583   -1.952319    3.072911    2.482105   -0.137946    0.567554   -0.012630   -0.272848   -4.323437    1.087812    2.336748   -0.070122   -0.075148    0.053193   -0.098009    0.064444   -0.026828
  4Y     0.695292    0.467321   -0.153979   -1.882756   39.908626   19.078143   -0.183938   -0.212025   -0.002682    1.093338  -40.018784  -18.774418    0.140311   -0.019368   -0.078004    0.137753   -0.125771   -0.069060
  4Z    -0.008193    1.750555    0.925579   -2.137447   17.033045    8.988671   -0.347003   -0.082254    0.094933    2.337220  -18.684996   -9.830783    0.040414   -0.092048   -0.160327    0.115009    0.075698   -0.018072
  5X    15.867691    1.052380   11.297232    3.511383   -0.144969    0.639745   -0.116151    0.012428    0.118921   -0.070142    0.139917    0.040382  -18.793575   -1.090827  -12.066257   -0.399206    0.031072   -0.030023
  5Y     1.177302    4.826057    0.980994   -0.496802   -0.303680   -0.101998    1.927555    0.009021    1.843242   -0.075231   -0.020913   -0.092224   -1.087325   -4.312323   -1.108226   -1.445499   -0.198162   -1.521788
  5Z    11.595808    1.141019   15.607736   -1.803684   -0.114495   -1.391310    0.758180   -0.105487    0.704939    0.052931   -0.078540   -0.160959  -12.056935   -1.110295  -16.049246    1.453700    0.267798    1.288840
  6X     4.487026    1.147600   -1.081994    1.623251    1.776330   -2.875705   -0.091655    0.161400   -0.013801   -0.097486    0.137589    0.114990   -0.398584   -1.445344    1.453332   -5.522553   -1.777574    2.403179
  6Y     1.501428   15.877110  -11.273389    0.055181   -0.884287    0.432718    0.130699    1.643690   -1.958663    0.064534   -0.126965    0.075547    0.031166   -0.197455    0.268241   -1.783009  -16.312094   12.455546
  6Z    -1.178014  -11.219176   15.922635   -1.376047   -0.488859    1.072451    0.200462    0.839661   -0.948698   -0.027275   -0.068945   -0.017434   -0.029075   -1.522439    1.290114    2.409948   12.459758  -17.319069
 
 
 Eigenvectors and eigenvalues of the dynamical matrix
 ----------------------------------------------------
 
 
   1 f  =  112.807950 THz   708.793256 2PiTHz 3762.868073 cm-1   466.536349 meV
             X         Y         Z           dx          dy          dz
      7.104996  7.910365  7.884523    -0.005750   -0.007519   -0.000866  
      8.377139  7.760473  7.244067     0.015360   -0.216106   -0.105898  
      7.099504  8.909826  8.339036     0.002455    0.013634    0.005066  
      8.403030  6.882358  6.829814    -0.038108    0.874888    0.417888  
      6.268019  7.847734  7.166108    -0.002518    0.000665    0.002688  
      6.950512  7.161895  8.682386    -0.003325    0.001337    0.000963  
 
   2 f  =   91.281120 THz   573.536190 2PiTHz 3044.810318 cm-1   377.508502 meV
             X         Y         Z           dx          dy          dz
      7.104996  7.910365  7.884523    -0.046703   -0.276516   -0.104436  
      8.377139  7.760473  7.244067     0.001714    0.005958    0.001927  
      7.099504  8.909826  8.339036     0.005988    0.834224    0.374328  
      8.403030  6.882358  6.829814    -0.007027   -0.014860   -0.003561  
      6.268019  7.847734  7.166108     0.141409   -0.005360    0.131633  
      6.950512  7.161895  8.682386     0.014649    0.120392   -0.148246  
 
   3 f  =   88.955888 THz   558.926327 2PiTHz 2967.248929 cm-1   367.892112 meV
             X         Y         Z           dx          dy          dz
      7.104996  7.910365  7.884523    -0.118002    0.118290   -0.260880  
      8.377139  7.760473  7.244067     0.000545   -0.000521    0.001220  
      7.099504  8.909826  8.339036    -0.009751    0.007940   -0.022532  
      8.403030  6.882358  6.829814     0.001639   -0.001754    0.003663  
      6.268019  7.847734  7.166108     0.500858    0.055276    0.447199  
      6.950512  7.161895  8.682386    -0.085981   -0.469348    0.470910  
 
   4 f  =   87.205879 THz   547.930696 2PiTHz 2908.874915 cm-1   360.654654 meV
             X         Y         Z           dx          dy          dz
      7.104996  7.910365  7.884523     0.149504    0.063863   -0.039428  
      8.377139  7.760473  7.244067     0.008780   -0.002014   -0.004829  
      7.099504  8.909826  8.339036     0.003933    0.274928    0.122322  
      8.403030  6.882358  6.829814     0.002536   -0.003438   -0.002764  
      6.268019  7.847734  7.166108    -0.487998   -0.031657   -0.446019  
      6.950512  7.161895  8.682386    -0.071680   -0.453129    0.482473  
 
   5 f  =   43.493421 THz   273.277223 2PiTHz 1450.784316 cm-1   179.874395 meV
             X         Y         Z           dx          dy          dz
      7.104996  7.910365  7.884523    -0.113441   -0.117075    0.004148  
      8.377139  7.760473  7.244067    -0.045357   -0.070469   -0.010473  
      7.099504  8.909826  8.339036    -0.305337   -0.052351    0.091826  
      8.403030  6.882358  6.829814     0.117714    0.011688   -0.046940  
      6.268019  7.847734  7.166108     0.232310    0.519576   -0.322565  
      6.950512  7.161895  8.682386     0.530076    0.208669    0.305247  
 
   6 f  =   43.048650 THz   270.482647 2PiTHz 1435.948366 cm-1   178.034971 meV
             X         Y         Z           dx          dy          dz
      7.104996  7.910365  7.884523     0.081936   -0.074364    0.166294  
      8.377139  7.760473  7.244067     0.015008   -0.010977    0.028796  
      7.099504  8.909826  8.339036    -0.267325    0.270856   -0.600015  
      8.403030  6.882358  6.829814    -0.000206   -0.004133    0.009525  
      6.268019  7.847734  7.166108    -0.174561    0.396240    0.195615  
      6.950512  7.161895  8.682386     0.098119   -0.361433   -0.296601  
 
   7 f  =   42.517731 THz   267.146780 2PiTHz 1418.238791 cm-1   175.839263 meV
             X         Y         Z           dx          dy          dz
      7.104996  7.910365  7.884523     0.281644   -0.079463   -0.164312  
      8.377139  7.760473  7.244067     0.064131   -0.017796   -0.037819  
      7.099504  8.909826  8.339036    -0.560190   -0.125084    0.204262  
      8.403030  6.882358  6.829814     0.013027   -0.006228   -0.008662  
      6.268019  7.847734  7.166108    -0.298974    0.193981    0.349916  
      6.950512  7.161895  8.682386    -0.386376    0.283931    0.175159  
 
   8 f  =   39.710612 THz   249.509137 2PiTHz 1324.603411 cm-1   164.229951 meV
             X         Y         Z           dx          dy          dz
      7.104996  7.910365  7.884523    -0.025866   -0.356329   -0.151549  
      8.377139  7.760473  7.244067     0.136775    0.247535    0.052380  
      7.099504  8.909826  8.339036     0.310541   -0.050121   -0.160664  
      8.403030  6.882358  6.829814    -0.665597   -0.089667    0.255866  
      6.268019  7.847734  7.166108    -0.091811    0.231788    0.022517  
      6.950512  7.161895  8.682386    -0.010699    0.152858    0.198087  
 
   9 f  =   33.731894 THz   211.943744 2PiTHz 1125.174852 cm-1   139.503952 meV
             X         Y         Z           dx          dy          dz
      7.104996  7.910365  7.884523     0.157068   -0.161577    0.352358  
      8.377139  7.760473  7.244067    -0.082446    0.083311   -0.182021  
      7.099504  8.909826  8.339036    -0.088174    0.093680   -0.208629  
      8.403030  6.882358  6.829814    -0.000113    0.002273   -0.004811  
      6.268019  7.847734  7.166108     0.458668    0.052459   -0.382077  
      6.950512  7.161895  8.682386    -0.585087    0.078333    0.102556  
 
  10 f  =   31.361268 THz   197.048655 2PiTHz 1046.099250 cm-1   129.699824 meV
             X         Y         Z           dx          dy          dz
      7.104996  7.910365  7.884523    -0.472118   -0.135967    0.148880  
      8.377139  7.760473  7.244067     0.324962   -0.005775   -0.148358  
      7.099504  8.909826  8.339036     0.337331    0.042380   -0.130585  
      8.403030  6.882358  6.829814     0.443311    0.066694   -0.167618  
      6.268019  7.847734  7.166108    -0.240340    0.208865    0.154548  
      6.950512  7.161895  8.682386    -0.204095    0.176529    0.221382  
 
  11 f  =   30.004545 THz   188.524114 2PiTHz 1000.843847 cm-1   124.088867 meV
             X         Y         Z           dx          dy          dz
      7.104996  7.910365  7.884523     0.410206   -0.185924   -0.270443  
      8.377139  7.760473  7.244067    -0.528339    0.063947    0.266861  
      7.099504  8.909826  8.339036     0.378891   -0.001868   -0.169656  
      8.403030  6.882358  6.829814     0.352920    0.121387   -0.101684  
      6.268019  7.847734  7.166108    -0.027886    0.140703    0.059310  
      6.950512  7.161895  8.682386    -0.012852    0.128771    0.082252  
 
  12 f  =    8.332515 THz    52.354738 2PiTHz  277.942786 cm-1    34.460526 meV
             X         Y         Z           dx          dy          dz
      7.104996  7.910365  7.884523    -0.005023    0.009388   -0.011865  
      8.377139  7.760473  7.244067     0.092741   -0.097776    0.208535  
      7.099504  8.909826  8.339036    -0.109540    0.113021   -0.247192  
      8.403030  6.882358  6.829814    -0.321794    0.328728   -0.718658  
      6.268019  7.847734  7.166108     0.013783   -0.246829    0.005967  
      6.950512  7.161895  8.682386     0.064842    0.170986    0.171894  
 
  13 f  =    0.379230 THz     2.382772 2PiTHz   12.649749 cm-1     1.568370 meV
             X         Y         Z           dx          dy          dz
      7.104996  7.910365  7.884523     0.039855   -0.055279    0.116497  
      8.377139  7.760473  7.244067     0.181332    0.857368    0.187288  
      7.099504  8.909826  8.339036    -0.175437   -0.015796    0.031021  
      8.403030  6.882358  6.829814     0.208857    0.218491    0.048215  
      6.268019  7.847734  7.166108     0.030220   -0.170392    0.025272  
      6.950512  7.161895  8.682386     0.139869   -0.042098    0.033933  
 
  14 f  =    0.050108 THz     0.314839 2PiTHz    1.671429 cm-1     0.207231 meV
             X         Y         Z           dx          dy          dz
      7.104996  7.910365  7.884523    -0.360700    0.248925   -0.374651  
      8.377139  7.760473  7.244067    -0.444100    0.327563   -0.497175  
      7.099504  8.909826  8.339036    -0.102507    0.068032   -0.099730  
      8.403030  6.882358  6.829814    -0.112805    0.085622   -0.132325  
      6.268019  7.847734  7.166108    -0.112304    0.074656   -0.098776  
      6.950512  7.161895  8.682386    -0.091877    0.064604   -0.112504  
 
  15 f  =    0.028509 THz     0.179128 2PiTHz    0.950961 cm-1     0.117904 meV
             X         Y         Z           dx          dy          dz
      7.104996  7.910365  7.884523    -0.447368   -0.018621    0.424070  
      8.377139  7.760473  7.244067    -0.532176   -0.015980    0.456483  
      7.099504  8.909826  8.339036    -0.129885   -0.002799    0.116716  
      8.403030  6.882358  6.829814    -0.132316   -0.006542    0.119570  
      6.268019  7.847734  7.166108    -0.133972   -0.012852    0.128710  
      6.950512  7.161895  8.682386    -0.120370   -0.001432    0.127737  
 
  16 f/i=    0.309291 THz     1.943335 2PiTHz   10.316850 cm-1     1.279127 meV
             X         Y         Z           dx          dy          dz
      7.104996  7.910365  7.884523    -0.152391   -0.772367   -0.113871  
      8.377139  7.760473  7.244067    -0.125646   -0.101189   -0.216751  
      7.099504  8.909826  8.339036    -0.188984   -0.226391   -0.026891  
      8.403030  6.882358  6.829814     0.094159   -0.017474   -0.062933  
      6.268019  7.847734  7.166108    -0.046018   -0.346133   -0.019724  
      6.950512  7.161895  8.682386     0.082851   -0.251083   -0.034765  
 
  17 f/i=    0.663200 THz     4.167009 2PiTHz   22.121974 cm-1     2.742776 meV
             X         Y         Z           dx          dy          dz
      7.104996  7.910365  7.884523     0.301697    0.003146    0.523079  
      8.377139  7.760473  7.244067    -0.209077    0.074327   -0.519471  
      7.099504  8.909826  8.339036     0.171648    0.002825    0.147751  
      8.403030  6.882358  6.829814    -0.129613    0.017231   -0.131833  
      6.268019  7.847734  7.166108    -0.071412   -0.015820    0.337025  
      6.950512  7.161895  8.682386     0.275700    0.002060    0.188525  
 
  18 f/i=    1.718958 THz    10.800534 2PiTHz   57.338275 cm-1     7.109043 meV
             X         Y         Z           dx          dy          dz
      7.104996  7.910365  7.884523     0.000571   -0.108228    0.043495  
      8.377139  7.760473  7.244067     0.040286    0.086957    0.079576  
      7.099504  8.909826  8.339036     0.156359   -0.233406    0.459181  
      8.403030  6.882358  6.829814    -0.131514    0.207695   -0.383536  
      6.268019  7.847734  7.166108     0.030708    0.442339   -0.064235  
      6.950512  7.161895  8.682386    -0.183075   -0.360027   -0.331214  
 
 Finite differences POTIM=  2.000000000000000E-002
     LOOP+:  cpu time   39.0901: real time   39.1763
    4ORBIT:  cpu time    0.0000: real time    0.0000

 total amount of memory used by VASP on root node    91111. kBytes
========================================================================

   base      :      30000. kBytes
   nonl-proj :       1229. kBytes
   fftplans  :      20461. kBytes
   grid      :      39010. kBytes
   one-center:          1. kBytes
   wavefun   :        410. kBytes
 
  
  
 General timing and accounting informations for this job:
 ========================================================
  
                  Total CPU time used (sec):     1512.601
                            User time (sec):     1471.836
                          System time (sec):       40.766
                         Elapsed time (sec):     1520.658
  
                   Maximum memory used (kb):      148972.
                   Average memory used (kb):           0.
  
                          Minor page faults:      9132892
                          Major page faults:           33
                 Voluntary context switches:        14830
