 vasp.5.4.1p3 06Nov15 (build Nov 30 2015 07:53:06) gamma-only                   
  
 executed on     AMD-Shanghai_-O1 date 2016.06.01  15:37:26
 running on   32 total cores
 distrk:  each k-point on   32 cores,    1 groups
 distr:  one band on NCORES_PER_BAND=  16 cores,    2 groups


--------------------------------------------------------------------------------------------------------


 INCAR:
 POTCAR:   PAW_PBE C 08Apr2002                    
 POTCAR:   PAW_PBE O 08Apr2002                    
 POTCAR:   PAW_PBE H 15Jun2001                    

 ----------------------------------------------------------------------------- 
|                                                                             |
|           W    W    AA    RRRRR   N    N  II  N    N   GGGG   !!!           |
|           W    W   A  A   R    R  NN   N  II  NN   N  G    G  !!!           |
|           W    W  A    A  R    R  N N  N  II  N N  N  G       !!!           |
|           W WW W  AAAAAA  RRRRR   N  N N  II  N  N N  G  GGG   !            |
|           WW  WW  A    A  R   R   N   NN  II  N   NN  G    G                |
|           W    W  A    A  R    R  N    N  II  N    N   GGGG   !!!           |
|                                                                             |
|      For optimal performance we recommend to set                            |
|        NCORE= 4 - approx SQRT( number of cores)                             |
|      NCORE specifies how many cores store one orbital (NPAR=cpu/NCORE).     |
|      This setting can  greatly improve the performance of VASP for DFT.     |
|      The default, NPAR=number of cores might be grossly inefficient         |
|      on modern multi-core architectures or massively parallel machines.     |
|      Do your own testing !!!!                                               |
|      Unfortunately you need to use the default for GW and RPA calculations. |
|      (for HF NCORE is supported but not extensively tested yet)             |
|                                                                             |
 ----------------------------------------------------------------------------- 

 POTCAR:   PAW_PBE C 08Apr2002                    
   VRHFIN =C: s2p2                                                              
   LEXCH  = PE                                                                  
   EATOM  =   147.1560 eV,   10.8157 Ry                                         
                                                                                
   TITEL  = PAW_PBE C 08Apr2002                                                 
   LULTRA =        F    use ultrasoft PP ?                                      
   IUNSCR =        0    unscreen: 0-lin 1-nonlin 2-no                           
   RPACOR =     .000    partial core radius                                     
   POMASS =   12.011; ZVAL   =    4.000    mass and valenz                      
   RCORE  =    1.500    outmost cutoff radius                                   
   RWIGS  =    1.630; RWIGS  =     .863    wigner-seitz radius (au A)           
   ENMAX  =  400.000; ENMIN  =  300.000 eV                                      
   ICORE  =        2    local potential                                         
   LCOR   =        T    correct aug charges                                     
   LPAW   =        T    paw PP                                                  
   EAUG   =  644.873                                                            
   DEXC   =     .000                                                            
   RMAX   =    2.266    core radius for proj-oper                               
   RAUG   =    1.300    factor for augmentation sphere                          
   RDEP   =    1.501    radius for radial grids                                 
   RDEPT  =    1.300    core radius for aug-charge                              
   QCUT   =   -5.516; QGAM   =   11.032    optimization parameters              
                                                                                
   Description                                                                  
     l     E      TYP  RCUT    TYP  RCUT                                        
     0   .000     23  1.200                                                     
     0   .000     23  1.200                                                     
     1   .000     23  1.500                                                     
     1  2.500     23  1.500                                                     
     2   .000      7  1.500                                                     
  local pseudopotential read in
  atomic valenz-charges read in
  non local Contribution for L=           0  read in
    real space projection operators read in
  non local Contribution for L=           0  read in
    real space projection operators read in
  non local Contribution for L=           1  read in
    real space projection operators read in
  non local Contribution for L=           1  read in
    real space projection operators read in
    PAW grid and wavefunctions read in
 
   number of l-projection  operators is LMAX  =           4
   number of lm-projection operators is LMMAX =           8
 
 POTCAR:   PAW_PBE O 08Apr2002                    
   VRHFIN =O: s2p4                                                              
   LEXCH  = PE                                                                  
   EATOM  =   432.3788 eV,   31.7789 Ry                                         
                                                                                
   TITEL  = PAW_PBE O 08Apr2002                                                 
   LULTRA =        F    use ultrasoft PP ?                                      
   IUNSCR =        0    unscreen: 0-lin 1-nonlin 2-no                           
   RPACOR =     .000    partial core radius                                     
   POMASS =   16.000; ZVAL   =    6.000    mass and valenz                      
   RCORE  =    1.520    outmost cutoff radius                                   
   RWIGS  =    1.550; RWIGS  =     .820    wigner-seitz radius (au A)           
   ENMAX  =  400.000; ENMIN  =  300.000 eV                                      
   ICORE  =        2    local potential                                         
   LCOR   =        T    correct aug charges                                     
   LPAW   =        T    paw PP                                                  
   EAUG   =  605.392                                                            
   DEXC   =     .000                                                            
   RMAX   =    2.264    core radius for proj-oper                               
   RAUG   =    1.300    factor for augmentation sphere                          
   RDEP   =    1.550    radius for radial grids                                 
   QCUT   =   -5.520; QGAM   =   11.041    optimization parameters              
                                                                                
   Description                                                                  
     l     E      TYP  RCUT    TYP  RCUT                                        
     0   .000     23  1.200                                                     
     0  -.700     23  1.200                                                     
     1   .000     23  1.520                                                     
     1   .600     23  1.520                                                     
     2   .000      7  1.500                                                     
  local pseudopotential read in
  atomic valenz-charges read in
  non local Contribution for L=           0  read in
    real space projection operators read in
  non local Contribution for L=           0  read in
    real space projection operators read in
  non local Contribution for L=           1  read in
    real space projection operators read in
  non local Contribution for L=           1  read in
    real space projection operators read in
    PAW grid and wavefunctions read in
 
   number of l-projection  operators is LMAX  =           4
   number of lm-projection operators is LMMAX =           8
 
 POTCAR:   PAW_PBE H 15Jun2001                    
   VRHFIN =H: ultrasoft test                                                    
   LEXCH  = PE                                                                  
   EATOM  =    12.4884 eV,     .9179 Ry                                         
                                                                                
   TITEL  = PAW_PBE H 15Jun2001                                                 
   LULTRA =        F    use ultrasoft PP ?                                      
   IUNSCR =        0    unscreen: 0-lin 1-nonlin 2-no                           
   RPACOR =     .000    partial core radius                                     
   POMASS =    1.000; ZVAL   =    1.000    mass and valenz                      
   RCORE  =    1.100    outmost cutoff radius                                   
   RWIGS  =     .700; RWIGS  =     .370    wigner-seitz radius (au A)           
   ENMAX  =  250.000; ENMIN  =  200.000 eV                                      
   RCLOC  =     .701    cutoff for local pot                                    
   LCOR   =        T    correct aug charges                                     
   LPAW   =        T    paw PP                                                  
   EAUG   =  400.000                                                            
   RMAX   =    2.174    core radius for proj-oper                               
   RAUG   =    1.200    factor for augmentation sphere                          
   RDEP   =    1.112    radius for radial grids                                 
   QCUT   =   -5.749; QGAM   =   11.498    optimization parameters              
                                                                                
   Description                                                                  
     l     E      TYP  RCUT    TYP  RCUT                                        
     0   .000     23  1.100                                                     
     0   .500     23  1.100                                                     
     1  -.300     23  1.100                                                     
  local pseudopotential read in
  atomic valenz-charges read in
  non local Contribution for L=           0  read in
    real space projection operators read in
  non local Contribution for L=           0  read in
    real space projection operators read in
  non local Contribution for L=           1  read in
    real space projection operators read in
    PAW grid and wavefunctions read in
 
   number of l-projection  operators is LMAX  =           3
   number of lm-projection operators is LMMAX =           5
 
 PAW_PBE C 08Apr2002                    :
 energy of atom  1       EATOM= -147.1560
 kinetic energy error for atom=    0.0057 (will be added to EATOM!!)
 PAW_PBE O 08Apr2002                    :
 energy of atom  2       EATOM= -432.3788
 kinetic energy error for atom=    0.0168 (will be added to EATOM!!)
 PAW_PBE H 15Jun2001                    :
 energy of atom  3       EATOM=  -12.4884
 kinetic energy error for atom=    0.0004 (will be added to EATOM!!)
 
 
 POSCAR:  C  O  H                                
  positions in cartesian coordinates
  No initial velocities read in
 exchange correlation table for  LEXCH =        8
   RHO(1)=    0.500       N(1)  =     2000
   RHO(2)=  100.500       N(2)  =     4000
 


--------------------------------------------------------------------------------------------------------


 ion  position               nearest neighbor table
   1  0.445  0.494  0.494-   3 1.10   5 1.10   6 1.10   2 1.43
   2  0.523  0.486  0.451-   4 0.97   1 1.43
   3  0.445  0.555  0.525-   1 1.10
   4  0.523  0.433  0.422-   2 0.97
   5  0.391  0.492  0.451-   1 1.10
   6  0.437  0.445  0.542-   1 1.10
 

IMPORTANT INFORMATION: All symmetrisations will be switched off!
NOSYMM: (Re-)initialisation of all symmetry stuff for point group C_1.

 
 
 KPOINTS: KPOINTS created by Atomic Simulation Env

Automatic generation of k-mesh.
Space group operators:
 irot       det(A)        alpha          n_x          n_y          n_z        tau_x        tau_y        tau_z
    1     1.000000     0.000000     1.000000     0.000000     0.000000     0.000000     0.000000     0.000000
 
 Subroutine IBZKPT returns following result:
 ===========================================
 
 Found      1 irreducible k-points:
 
 Following reciprocal coordinates:
            Coordinates               Weight
  0.000000  0.000000  0.000000      1.000000
 
 Following cartesian coordinates:
            Coordinates               Weight
  0.000000  0.000000  0.000000      1.000000
 
 
 Subroutine IBZKPT_HF returns following result:
 ==============================================
 
 Found      1 k-points in 1st BZ
 the following      1 k-points will be used (e.g. in the exchange kernel)
 Following reciprocal coordinates:   # in IRBZ
  0.000000  0.000000  0.000000    1.00000000   1 t-inv F


--------------------------------------------------------------------------------------------------------




 Dimension of arrays:
   k-points           NKPTS =      1   k-points in BZ     NKDIM =      1   number of bands    NBANDS=     12
   number of dos      NEDOS =    301   number of ions     NIONS =      6
   non local maximal  LDIM  =      4   non local SUM 2l+1 LMDIM =      8
   total plane-waves  NPLWV = ******
   max r-space proj   IRMAX =      1   max aug-charges    IRDMAX=   6841
   dimension x,y,z NGX =   128 NGY =  128 NGZ =  128
   dimension x,y,z NGXF=   256 NGYF=  256 NGZF=  256
   support grid    NGXF=   256 NGYF=  256 NGZF=  256
   ions per type =               1   1   4
 NGX,Y,Z   is equivalent  to a cutoff of  13.30, 13.30, 13.30 a.u.
 NGXF,Y,Z  is equivalent  to a cutoff of  26.60, 26.60, 26.60 a.u.


 I would recommend the setting:
   dimension x,y,z NGX =   128 NGY =  128 NGZ =  128
 SYSTEM =  unknown system                          
 POSCAR =   C  O  H                                

 Startparameter for this run:
   NWRITE =      2    write-flag & timer
   PREC   = accura    normal or accurate (medium, high low for compatibility)
   ISTART =      0    job   : 0-new  1-cont  2-samecut
   ICHARG =      2    charge: 1-file 2-atom 10-const
   ISPIN  =      1    spin polarized calculation?
   LNONCOLLINEAR =      F non collinear calculations
   LSORBIT =      F    spin-orbit coupling
   INIWAV =      1    electr: 0-lowe 1-rand  2-diag
   LASPH  =      F    aspherical Exc in radial PAW
   METAGGA=      F    non-selfconsistent MetaGGA calc.

 Electronic Relaxation 1
   ENCUT  =  600.0 eV  44.10 Ry    6.64 a.u.  31.96 31.96 31.96*2*pi/ulx,y,z
   ENINI  =  600.0     initial cutoff
   ENAUG  =  644.9 eV  augmentation charge cutoff
   NELM   =    100;   NELMIN=  5; NELMDL=-12     # of ELM steps 
   EDIFF  = 0.1E-07   stopping-criterion for ELM
   LREAL  =      F    real-space projection
   NLSPLINE    = F    spline interpolate recip. space projectors
   LCOMPAT=      F    compatible to vasp.4.4
   GGA_COMPAT  = T    GGA compatible to vasp.4.4-vasp.4.6
   LMAXPAW     = -100 max onsite density
   LMAXMIX     =    2 max onsite mixed and CHGCAR
   VOSKOWN=      0    Vosko Wilk Nusair interpolation
   ROPT   =    0.00000   0.00000   0.00000
 Ionic relaxation
   EDIFFG = -.1E-02   stopping-criterion for IOM
   NSW    =    109    number of steps for IOM
   NBLOCK =      1;   KBLOCK =      1    inner block; outer block 
   IBRION =      5    ionic relax: 0-MD 1-quasi-New 2-CG
   NFREE  =      2    steps in history (QN), initial steepest desc. (CG)
   ISIF   =      2    stress and relaxation
   IWAVPR =     11    prediction:  0-non 1-charg 2-wave 3-comb
   ISYM   =      0    0-nonsym 1-usesym 2-fastsym
   LCORR  =      T    Harris-Foulkes like correction to forces

   POTIM  = 0.0200    time-step for ionic-motion
   TEIN   =    0.0    initial temperature
   TEBEG  =    0.0;   TEEND  =   0.0 temperature during run
   SMASS  =  -3.00    Nose mass-parameter (am)
   estimated Nose-frequenzy (Omega)   =  0.10E-29 period in steps =****** mass=  -0.585E-26a.u.
   SCALEE = 1.0000    scale energy and forces
   NPACO  =    256;   APACO  = 16.0  distance and # of slots for P.C.
   PSTRESS=    0.0 pullay stress

  Mass of Ions in am
   POMASS =  12.01 16.00  1.00
  Ionic Valenz
   ZVAL   =   4.00  6.00  1.00
  Atomic Wigner-Seitz radii
   RWIGS  =  -1.00 -1.00 -1.00
  virtual crystal weights 
   VCA    =   1.00  1.00  1.00
   NELECT =      14.0000    total number of electrons
   NUPDOWN=      -1.0000    fix difference up-down

 DOS related values:
   EMIN   =  10.00;   EMAX   =-10.00  energy-range for DOS
   EFERMI =   0.00
   ISMEAR =     0;   SIGMA  =   0.20  broadening in eV -4-tet -1-fermi 0-gaus

 Electronic relaxation 2 (details)
   IALGO  =     48    algorithm
   LDIAG  =      T    sub-space diagonalisation (order eigenvalues)
   LSUBROT=      F    optimize rotation matrix (better conditioning)
   TURBO    =      0    0=normal 1=particle mesh
   IRESTART =      0    0=no restart 2=restart with 2 vectors
   NREBOOT  =      0    no. of reboots
   NMIN     =      0    reboot dimension
   EREF     =   0.00    reference energy to select bands
   IMIX   =      4    mixing-type and parameters
     AMIX     =   0.40;   BMIX     =  1.00
     AMIX_MAG =   1.60;   BMIX_MAG =  1.00
     AMIN     =   0.10
     WC   =   100.;   INIMIX=   1;  MIXPRE=   1;  MAXMIX= -45

 Intra band minimization:
   WEIMIN = 0.0010     energy-eigenvalue tresh-hold
   EBREAK =  0.21E-09  absolut break condition
   DEPER  =   0.30     relativ break condition  

   TIME   =   0.40     timestep for ELM

  volume/ion in A,a.u.               =     682.67      4606.86
  Fermi-wavevector in a.u.,A,eV,Ry     =   0.246603  0.466011  0.827408  0.060813
  Thomas-Fermi vector in A             =   1.058894
 
 Write flags
   LWAVE  =      F    write WAVECAR
   LCHARG =      F    write CHGCAR
   LVTOT  =      F    write LOCPOT, total local potential
   LVHAR  =      F    write LOCPOT, Hartree potential only
   LELF   =      F    write electronic localiz. function (ELF)
   LORBIT =      0    0 simple, 1 ext, 2 COOP (PROOUT)


 Dipole corrections
   LMONO  =      F    monopole corrections only (constant potential shift)
   LDIPOL =      F    correct potential (dipole corrections)
   IDIPOL =      0    1-x, 2-y, 3-z, 4-all directions 
   EPSILON=  1.0000000 bulk dielectric constant

 Exchange correlation treatment:
   GGA     =    PE    GGA type
   LEXCH   =     8    internal setting for exchange type
   VOSKOWN=      0    Vosko Wilk Nusair interpolation
   LHFCALC =     F    Hartree Fock is set to
   LHFONE  =     F    Hartree Fock one center treatment
   AEXX    =    0.0000 exact exchange contribution

 Linear response parameters
   LEPSILON=     F    determine dielectric tensor
   LRPA    =     F    only Hartree local field effects (RPA)
   LNABLA  =     F    use nabla operator in PAW spheres
   LVEL    =     F    velocity operator in full k-point grid
   LINTERFAST=   F  fast interpolation
   KINTER  =     0    interpolate to denser k-point grid
   CSHIFT  =0.1000    complex shift for real part using Kramers Kronig
   OMEGAMAX=  -1.0    maximum frequency
   DEG_THRESHOLD= 0.2000000E-02 threshold for treating states as degnerate
   RTIME   =    0.100 relaxation time in fs

 Orbital magnetization related:
   ORBITALMAG=     F  switch on orbital magnetization
   LCHIMAG   =     F  perturbation theory with respect to B field
   DQ        =  0.001000  dq finite difference perturbation B field



--------------------------------------------------------------------------------------------------------


 finite differences
 charge density and potential will be updated during run
 non-spin polarized calculation
 RMM-DIIS sequential band-by-band
 perform sub-space diagonalisation
    before iterative eigenvector-optimisation
 modified Broyden-mixing scheme, WC =      100.0
 initial mixing is a Kerker type mixing with AMIX =  0.4000 and BMIX =      1.0000
 Hartree-type preconditioning will be used
 using additional bands            5
 reciprocal scheme for non local part
 calculate Harris-corrections to forces 
   (improved forces if not selfconsistent)
 use gradient corrections 
 use of overlap-Matrix (Vanderbilt PP)
 Gauss-broadening in eV      SIGMA  =   0.20


--------------------------------------------------------------------------------------------------------


  energy-cutoff  :      600.00
  volume of cell :     4096.00
      direct lattice vectors                 reciprocal lattice vectors
    16.000000000  0.000000000  0.000000000     0.062500000  0.000000000  0.000000000
     0.000000000 16.000000000  0.000000000     0.000000000  0.062500000  0.000000000
     0.000000000  0.000000000 16.000000000     0.000000000  0.000000000  0.062500000

  length of vectors
    16.000000000 16.000000000 16.000000000     0.062500000  0.062500000  0.062500000


 
 k-points in units of 2pi/SCALE and weight: KPOINTS created by Atomic Simulation Env
   0.00000000  0.00000000  0.00000000       1.000
 
 k-points in reciprocal lattice and weights: KPOINTS created by Atomic Simulation Env
   0.00000000  0.00000000  0.00000000       1.000
 
 position of ions in fractional coordinates (direct lattice) 
   0.44452052  0.49383467  0.49382615
   0.52251785  0.48635753  0.45055878
   0.44538199  0.55482070  0.52527585
   0.52314951  0.43271140  0.42215720
   0.39062423  0.49220730  0.45069222
   0.43651864  0.44466079  0.54163742
 
 position of ions in cartesian coordinates  (Angst):
   7.11232834  7.90135476  7.90121836
   8.36028561  7.78172051  7.20894041
   7.12611179  8.87713112  8.40441361
   8.37039216  6.92338243  6.75451527
   6.24998773  7.87531672  7.21107557
   6.98429825  7.11457272  8.66619877
 


--------------------------------------------------------------------------------------------------------


 use parallel FFT for wavefunctions z direction half grid
 k-point  1 :   0.0000 0.0000 0.0000  plane waves:   68338

 maximum and minimum number of plane-waves per node :      4278     4264

 maximum number of plane-waves:     68338
 maximum index in each direction: 
   IXMAX=   31   IYMAX=   31   IZMAX=   31
   IXMIN=  -31   IYMIN=  -31   IZMIN=    0

 NGX is ok and might be reduce to 126
 NGY is ok and might be reduce to 126
 NGZ is ok and might be reduce to 126

 parallel 3D FFT for wavefunctions:
    minimum data exchange during FFTs selected (reduces bandwidth)
 parallel 3D FFT for charge:
    minimum data exchange during FFTs selected (reduces bandwidth)


 total amount of memory used by VASP on root node    91111. kBytes
========================================================================

   base      :      30000. kBytes
   nonl-proj :       1229. kBytes
   fftplans  :      20461. kBytes
   grid      :      39010. kBytes
   one-center:          1. kBytes
   wavefun   :        410. kBytes
 
     INWAV:  cpu time    0.0000: real time    0.0000
 Broyden mixing: mesh for mixing (old mesh)
   NGX = 63   NGY = 63   NGZ = 63
  (NGX  =256   NGY  =256   NGZ  =256)
  gives a total of 250047 points

 initial charge density was supplied:
 charge density of overlapping atoms calculated
 number of electron      14.0000000 magnetization 
 keeping initial charge density in first step


--------------------------------------------------------------------------------------------------------


 Maximum index for augmentation-charges          316 (set IRDMAX)


--------------------------------------------------------------------------------------------------------


 First call to EWALD:  gamma=   0.111
 Maximum number of real-space cells 3x 3x 3
 Maximum number of reciprocal cells 3x 3x 3

 FEWALD executed in parallel
    FEWALD:  cpu time    0.0049: real time    0.0049


----------------------------------------- Iteration     1(   1)  ---------------------------------------


    POTLOK:  cpu time    1.4259: real time    1.4581
    SETDIJ:  cpu time    0.0113: real time    0.0113
    EDDIAG:  cpu time    0.1981: real time    0.2014
  RMM-DIIS:  cpu time    0.2375: real time    0.2379
    ORTHCH:  cpu time    0.0031: real time    0.0031
       DOS:  cpu time    0.0002: real time    0.0002
    --------------------------------------------
      LOOP:  cpu time    1.8797: real time    1.9191

 eigenvalue-minimisations  :    12
 total energy-change (2. order) : 0.1989467E+03  (-0.1413422E+03)
 number of electron      14.0000000 magnetization 
 augmentation part       14.0000000 magnetization 

 Free energy of the ion-electron system (eV)
  ---------------------------------------------------
  alpha Z        PSCENC =         0.18207619
  Ewald energy   TEWEN  =       433.04938679
  -Hartree energ DENC   =      -901.54059003
  -exchange      EXHF   =         0.00000000
  -V(xc)+E(xc)   XCENC  =        50.54303877
  PAW double counting   =       286.95514855     -289.99134475
  entropy T*S    EENTRO =        -0.00000000
  eigenvalues    EBANDS =        -9.71522797
  atomic energy  EATOM  =       629.46422187
  Solvation  Ediel_sol  =         0.00000000
  ---------------------------------------------------
  free energy    TOTEN  =       198.94670942 eV

  energy without entropy =      198.94670942  energy(sigma->0) =      198.94670942


--------------------------------------------------------------------------------------------------------




----------------------------------------- Iteration     1(   2)  ---------------------------------------


    EDDIAG:  cpu time    0.1103: real time    0.1110
  RMM-DIIS:  cpu time    0.2306: real time    0.2311
    ORTHCH:  cpu time    0.0031: real time    0.0031
       DOS:  cpu time    0.0003: real time    0.0003
    --------------------------------------------
      LOOP:  cpu time    0.3449: real time    0.3474

 eigenvalue-minimisations  :    12
 total energy-change (2. order) :-0.2598326E+02  (-0.4078526E+02)
 number of electron      14.0000000 magnetization 
 augmentation part       14.0000000 magnetization 

 Free energy of the ion-electron system (eV)
  ---------------------------------------------------
  alpha Z        PSCENC =         0.18207619
  Ewald energy   TEWEN  =       433.04938679
  -Hartree energ DENC   =      -901.54059003
  -exchange      EXHF   =         0.00000000
  -V(xc)+E(xc)   XCENC  =        50.54303877
  PAW double counting   =       286.95514855     -289.99134475
  entropy T*S    EENTRO =        -0.14576834
  eigenvalues    EBANDS =       -35.55272134
  atomic energy  EATOM  =       629.46422187
  Solvation  Ediel_sol  =         0.00000000
  ---------------------------------------------------
  free energy    TOTEN  =       172.96344771 eV

  energy without entropy =      173.10921605  energy(sigma->0) =      173.03633188


--------------------------------------------------------------------------------------------------------




----------------------------------------- Iteration     1(   3)  ---------------------------------------


    EDDIAG:  cpu time    0.1018: real time    0.1024
  RMM-DIIS:  cpu time    0.2335: real time    0.2338
    ORTHCH:  cpu time    0.0035: real time    0.0035
       DOS:  cpu time    0.0003: real time    0.0002
    --------------------------------------------
      LOOP:  cpu time    0.3400: real time    0.3422

 eigenvalue-minimisations  :    12
 total energy-change (2. order) :-0.4055864E+02  (-0.4593069E+02)
 number of electron      14.0000000 magnetization 
 augmentation part       14.0000000 magnetization 

 Free energy of the ion-electron system (eV)
  ---------------------------------------------------
  alpha Z        PSCENC =         0.18207619
  Ewald energy   TEWEN  =       433.04938679
  -Hartree energ DENC   =      -901.54059003
  -exchange      EXHF   =         0.00000000
  -V(xc)+E(xc)   XCENC  =        50.54303877
  PAW double counting   =       286.95514855     -289.99134475
  entropy T*S    EENTRO =        -0.05427591
  eigenvalues    EBANDS =       -76.20285578
  atomic energy  EATOM  =       629.46422187
  Solvation  Ediel_sol  =         0.00000000
  ---------------------------------------------------
  free energy    TOTEN  =       132.40480570 eV

  energy without entropy =      132.45908161  energy(sigma->0) =      132.43194365


--------------------------------------------------------------------------------------------------------




----------------------------------------- Iteration     1(   4)  ---------------------------------------


    EDDIAG:  cpu time    0.1525: real time    0.1568
  RMM-DIIS:  cpu time    0.2387: real time    0.2394
    ORTHCH:  cpu time    0.0038: real time    0.0038
       DOS:  cpu time    0.0003: real time    0.0003
    --------------------------------------------
      LOOP:  cpu time    0.3961: real time    0.4024

 eigenvalue-minimisations  :    12
 total energy-change (2. order) :-0.4643310E+02  (-0.4188295E+02)
 number of electron      14.0000000 magnetization 
 augmentation part       14.0000000 magnetization 

 Free energy of the ion-electron system (eV)
  ---------------------------------------------------
  alpha Z        PSCENC =         0.18207619
  Ewald energy   TEWEN  =       433.04938679
  -Hartree energ DENC   =      -901.54059003
  -exchange      EXHF   =         0.00000000
  -V(xc)+E(xc)   XCENC  =        50.54303877
  PAW double counting   =       286.95514855     -289.99134475
  entropy T*S    EENTRO =        -0.06217784
  eigenvalues    EBANDS =      -122.62805357
  atomic energy  EATOM  =       629.46422187
  Solvation  Ediel_sol  =         0.00000000
  ---------------------------------------------------
  free energy    TOTEN  =        85.97170598 eV

  energy without entropy =       86.03388382  energy(sigma->0) =       86.00279490


--------------------------------------------------------------------------------------------------------




----------------------------------------- Iteration     1(   5)  ---------------------------------------


    EDDIAG:  cpu time    0.1475: real time    0.1720
  RMM-DIIS:  cpu time    0.2748: real time    0.2753
    ORTHCH:  cpu time    0.0042: real time    0.0042
       DOS:  cpu time    0.0003: real time    0.0003
    --------------------------------------------
      LOOP:  cpu time    0.4278: real time    0.4637

 eigenvalue-minimisations  :    12
 total energy-change (2. order) :-0.4480112E+02  (-0.4522198E+02)
 number of electron      14.0000000 magnetization 
 augmentation part       14.0000000 magnetization 

 Free energy of the ion-electron system (eV)
  ---------------------------------------------------
  alpha Z        PSCENC =         0.18207619
  Ewald energy   TEWEN  =       433.04938679
  -Hartree energ DENC   =      -901.54059003
  -exchange      EXHF   =         0.00000000
  -V(xc)+E(xc)   XCENC  =        50.54303877
  PAW double counting   =       286.95514855     -289.99134475
  entropy T*S    EENTRO =        -0.00342386
  eigenvalues    EBANDS =      -167.48793140
  atomic energy  EATOM  =       629.46422187
  Solvation  Ediel_sol  =         0.00000000
  ---------------------------------------------------
  free energy    TOTEN  =        41.17058213 eV

  energy without entropy =       41.17400599  energy(sigma->0) =       41.17229406


--------------------------------------------------------------------------------------------------------




----------------------------------------- Iteration     1(   6)  ---------------------------------------


    EDDIAG:  cpu time    0.1552: real time    0.1558
  RMM-DIIS:  cpu time    0.2219: real time    0.2222
    ORTHCH:  cpu time    0.0032: real time    0.0032
       DOS:  cpu time    0.0003: real time    0.0003
    --------------------------------------------
      LOOP:  cpu time    0.3814: real time    0.3835

 eigenvalue-minimisations  :    12
 total energy-change (2. order) :-0.3833751E+02  (-0.3618575E+02)
 number of electron      14.0000000 magnetization 
 augmentation part       14.0000000 magnetization 

 Free energy of the ion-electron system (eV)
  ---------------------------------------------------
  alpha Z        PSCENC =         0.18207619
  Ewald energy   TEWEN  =       433.04938679
  -Hartree energ DENC   =      -901.54059003
  -exchange      EXHF   =         0.00000000
  -V(xc)+E(xc)   XCENC  =        50.54303877
  PAW double counting   =       286.95514855     -289.99134475
  entropy T*S    EENTRO =        -0.19704329
  eigenvalues    EBANDS =      -205.63181956
  atomic energy  EATOM  =       629.46422187
  Solvation  Ediel_sol  =         0.00000000
  ---------------------------------------------------
  free energy    TOTEN  =         2.83307454 eV

  energy without entropy =        3.03011783  energy(sigma->0) =        2.93159618


--------------------------------------------------------------------------------------------------------




----------------------------------------- Iteration     1(   7)  ---------------------------------------


    EDDIAG:  cpu time    0.1503: real time    0.1567
  RMM-DIIS:  cpu time    0.2352: real time    0.2357
    ORTHCH:  cpu time    0.0048: real time    0.0048
       DOS:  cpu time    0.0003: real time    0.0003
    --------------------------------------------
      LOOP:  cpu time    0.3915: real time    0.3995

 eigenvalue-minimisations  :    12
 total energy-change (2. order) :-0.2120332E+02  (-0.1685276E+02)
 number of electron      14.0000000 magnetization 
 augmentation part       14.0000000 magnetization 

 Free energy of the ion-electron system (eV)
  ---------------------------------------------------
  alpha Z        PSCENC =         0.18207619
  Ewald energy   TEWEN  =       433.04938679
  -Hartree energ DENC   =      -901.54059003
  -exchange      EXHF   =         0.00000000
  -V(xc)+E(xc)   XCENC  =        50.54303877
  PAW double counting   =       286.95514855     -289.99134475
  entropy T*S    EENTRO =        -0.00000000
  eigenvalues    EBANDS =      -227.03218550
  atomic energy  EATOM  =       629.46422187
  Solvation  Ediel_sol  =         0.00000000
  ---------------------------------------------------
  free energy    TOTEN  =       -18.37024811 eV

  energy without entropy =      -18.37024811  energy(sigma->0) =      -18.37024811


--------------------------------------------------------------------------------------------------------




----------------------------------------- Iteration     1(   8)  ---------------------------------------


    EDDIAG:  cpu time    0.1449: real time    0.1452
  RMM-DIIS:  cpu time    0.2146: real time    0.2278
    ORTHCH:  cpu time    0.0031: real time    0.0031
       DOS:  cpu time    0.0002: real time    0.0002
    --------------------------------------------
      LOOP:  cpu time    0.3651: real time    0.3799

 eigenvalue-minimisations  :    12
 total energy-change (2. order) :-0.1279212E+02  (-0.1253315E+02)
 number of electron      14.0000000 magnetization 
 augmentation part       14.0000000 magnetization 

 Free energy of the ion-electron system (eV)
  ---------------------------------------------------
  alpha Z        PSCENC =         0.18207619
  Ewald energy   TEWEN  =       433.04938679
  -Hartree energ DENC   =      -901.54059003
  -exchange      EXHF   =         0.00000000
  -V(xc)+E(xc)   XCENC  =        50.54303877
  PAW double counting   =       286.95514855     -289.99134475
  entropy T*S    EENTRO =        -0.00000000
  eigenvalues    EBANDS =      -239.82430924
  atomic energy  EATOM  =       629.46422187
  Solvation  Ediel_sol  =         0.00000000
  ---------------------------------------------------
  free energy    TOTEN  =       -31.16237185 eV

  energy without entropy =      -31.16237185  energy(sigma->0) =      -31.16237185


--------------------------------------------------------------------------------------------------------




----------------------------------------- Iteration     1(   9)  ---------------------------------------


    EDDIAG:  cpu time    0.1055: real time    0.1188
  RMM-DIIS:  cpu time    0.4020: real time    0.4023
    ORTHCH:  cpu time    0.0031: real time    0.0031
       DOS:  cpu time    0.0002: real time    0.0002
    --------------------------------------------
      LOOP:  cpu time    0.5116: real time    0.5266

 eigenvalue-minimisations  :    24
 total energy-change (2. order) :-0.2279560E+01  (-0.2226754E+01)
 number of electron      14.0000000 magnetization 
 augmentation part       14.0000000 magnetization 

 Free energy of the ion-electron system (eV)
  ---------------------------------------------------
  alpha Z        PSCENC =         0.18207619
  Ewald energy   TEWEN  =       433.04938679
  -Hartree energ DENC   =      -901.54059003
  -exchange      EXHF   =         0.00000000
  -V(xc)+E(xc)   XCENC  =        50.54303877
  PAW double counting   =       286.95514855     -289.99134475
  entropy T*S    EENTRO =        -0.00000000
  eigenvalues    EBANDS =      -242.10386925
  atomic energy  EATOM  =       629.46422187
  Solvation  Ediel_sol  =         0.00000000
  ---------------------------------------------------
  free energy    TOTEN  =       -33.44193185 eV

  energy without entropy =      -33.44193185  energy(sigma->0) =      -33.44193185


--------------------------------------------------------------------------------------------------------




----------------------------------------- Iteration     1(  10)  ---------------------------------------


    EDDIAG:  cpu time    0.1365: real time    0.1370
  RMM-DIIS:  cpu time    0.4662: real time    0.4666
    ORTHCH:  cpu time    0.0031: real time    0.0031
       DOS:  cpu time    0.0002: real time    0.0002
    --------------------------------------------
      LOOP:  cpu time    0.6068: real time    0.6091

 eigenvalue-minimisations  :    27
 total energy-change (2. order) :-0.1348524E+00  (-0.1320528E+00)
 number of electron      14.0000000 magnetization 
 augmentation part       14.0000000 magnetization 

 Free energy of the ion-electron system (eV)
  ---------------------------------------------------
  alpha Z        PSCENC =         0.18207619
  Ewald energy   TEWEN  =       433.04938679
  -Hartree energ DENC   =      -901.54059003
  -exchange      EXHF   =         0.00000000
  -V(xc)+E(xc)   XCENC  =        50.54303877
  PAW double counting   =       286.95514855     -289.99134475
  entropy T*S    EENTRO =        -0.00000000
  eigenvalues    EBANDS =      -242.23872165
  atomic energy  EATOM  =       629.46422187
  Solvation  Ediel_sol  =         0.00000000
  ---------------------------------------------------
  free energy    TOTEN  =       -33.57678426 eV

  energy without entropy =      -33.57678426  energy(sigma->0) =      -33.57678426


--------------------------------------------------------------------------------------------------------




----------------------------------------- Iteration     1(  11)  ---------------------------------------


    EDDIAG:  cpu time    0.1367: real time    0.1499
  RMM-DIIS:  cpu time    0.4363: real time    0.4366
    ORTHCH:  cpu time    0.0046: real time    0.0046
       DOS:  cpu time    0.0002: real time    0.0001
    --------------------------------------------
      LOOP:  cpu time    0.5785: real time    0.5933

 eigenvalue-minimisations  :    25
 total energy-change (2. order) :-0.1433393E-01  (-0.1427203E-01)
 number of electron      14.0000000 magnetization 
 augmentation part       14.0000000 magnetization 

 Free energy of the ion-electron system (eV)
  ---------------------------------------------------
  alpha Z        PSCENC =         0.18207619
  Ewald energy   TEWEN  =       433.04938679
  -Hartree energ DENC   =      -901.54059003
  -exchange      EXHF   =         0.00000000
  -V(xc)+E(xc)   XCENC  =        50.54303877
  PAW double counting   =       286.95514855     -289.99134475
  entropy T*S    EENTRO =        -0.00000000
  eigenvalues    EBANDS =      -242.25305558
  atomic energy  EATOM  =       629.46422187
  Solvation  Ediel_sol  =         0.00000000
  ---------------------------------------------------
  free energy    TOTEN  =       -33.59111819 eV

  energy without entropy =      -33.59111819  energy(sigma->0) =      -33.59111819


--------------------------------------------------------------------------------------------------------




----------------------------------------- Iteration     1(  12)  ---------------------------------------


    EDDIAG:  cpu time    0.1506: real time    0.1527
  RMM-DIIS:  cpu time    0.4546: real time    0.4550
    ORTHCH:  cpu time    0.0032: real time    0.0033
       DOS:  cpu time    0.0001: real time    0.0001
    CHARGE:  cpu time    0.1850: real time    0.1852
    MIXING:  cpu time    0.0406: real time    0.0406
    --------------------------------------------
      LOOP:  cpu time    0.8366: real time    0.8407

 eigenvalue-minimisations  :    27
 total energy-change (2. order) :-0.2212216E-03  (-0.2363385E-03)
 number of electron      14.0000002 magnetization 
 augmentation part        0.9532324 magnetization 

 Broyden mixing:
  rms(total) = 0.96014E+00    rms(broyden)= 0.95991E+00
  rms(prec ) = 0.11033E+01
  weight for this iteration     100.00

 Free energy of the ion-electron system (eV)
  ---------------------------------------------------
  alpha Z        PSCENC =         0.18207619
  Ewald energy   TEWEN  =       433.04938679
  -Hartree energ DENC   =      -901.54059003
  -exchange      EXHF   =         0.00000000
  -V(xc)+E(xc)   XCENC  =        50.54303877
  PAW double counting   =       286.95514855     -289.99134475
  entropy T*S    EENTRO =        -0.00000000
  eigenvalues    EBANDS =      -242.25327680
  atomic energy  EATOM  =       629.46422187
  Solvation  Ediel_sol  =         0.00000000
  ---------------------------------------------------
  free energy    TOTEN  =       -33.59133941 eV

  energy without entropy =      -33.59133941  energy(sigma->0) =      -33.59133941


--------------------------------------------------------------------------------------------------------




----------------------------------------- Iteration     1(  13)  ---------------------------------------


    POTLOK:  cpu time    1.1841: real time    1.1845
    SETDIJ:  cpu time    0.0087: real time    0.0087
    EDDIAG:  cpu time    0.1424: real time    0.1450
  RMM-DIIS:  cpu time    0.3863: real time    0.3965
    ORTHCH:  cpu time    0.0030: real time    0.0030
       DOS:  cpu time    0.0003: real time    0.0003
    CHARGE:  cpu time    0.1395: real time    0.1398
    MIXING:  cpu time    0.0356: real time    0.0356
    --------------------------------------------
      LOOP:  cpu time    1.9009: real time    1.9157

 eigenvalue-minimisations  :    24
 total energy-change (2. order) : 0.2743716E+01  (-0.6746553E+00)
 number of electron      14.0000002 magnetization 
 augmentation part        0.8593524 magnetization 

 Broyden mixing:
  rms(total) = 0.44590E+00    rms(broyden)= 0.44585E+00
  rms(prec ) = 0.50528E+00
  weight for this iteration     100.00

 eigenvalues of (default mixing * dielectric matrix)
  average eigenvalue GAMMA=   1.2985
  1.2985

 Free energy of the ion-electron system (eV)
  ---------------------------------------------------
  alpha Z        PSCENC =         0.18207619
  Ewald energy   TEWEN  =       433.04938679
  -Hartree energ DENC   =      -934.49762781
  -exchange      EXHF   =         0.00000000
  -V(xc)+E(xc)   XCENC  =        52.32800792
  PAW double counting   =       350.25411682     -353.71739639
  entropy T*S    EENTRO =        -0.00000000
  eigenvalues    EBANDS =      -207.91040864
  atomic energy  EATOM  =       629.46422187
  Solvation  Ediel_sol  =         0.00000000
  ---------------------------------------------------
  free energy    TOTEN  =       -30.84762325 eV

  energy without entropy =      -30.84762325  energy(sigma->0) =      -30.84762325


--------------------------------------------------------------------------------------------------------




----------------------------------------- Iteration     1(  14)  ---------------------------------------


    POTLOK:  cpu time    1.1508: real time    1.1521
    SETDIJ:  cpu time    0.0049: real time    0.0049
    EDDIAG:  cpu time    0.1903: real time    0.1907
  RMM-DIIS:  cpu time    0.4853: real time    0.4863
    ORTHCH:  cpu time    0.0031: real time    0.0031
       DOS:  cpu time    0.0002: real time    0.0002
    CHARGE:  cpu time    0.1567: real time    0.1570
    MIXING:  cpu time    0.0349: real time    0.0349
    --------------------------------------------
      LOOP:  cpu time    2.0273: real time    2.0319

 eigenvalue-minimisations  :    24
 total energy-change (2. order) : 0.4981627E+00  (-0.1507852E+00)
 number of electron      14.0000002 magnetization 
 augmentation part        0.8299730 magnetization 

 Broyden mixing:
  rms(total) = 0.22050E+00    rms(broyden)= 0.22048E+00
  rms(prec ) = 0.24536E+00
  weight for this iteration     100.00

 eigenvalues of (default mixing * dielectric matrix)
  average eigenvalue GAMMA=   1.6836
  1.3809  1.9863

 Free energy of the ion-electron system (eV)
  ---------------------------------------------------
  alpha Z        PSCENC =         0.18207619
  Ewald energy   TEWEN  =       433.04938679
  -Hartree energ DENC   =      -950.76622168
  -exchange      EXHF   =         0.00000000
  -V(xc)+E(xc)   XCENC  =        53.30115648
  PAW double counting   =       383.36933037     -386.91143943
  entropy T*S    EENTRO =        -0.00000000
  eigenvalues    EBANDS =      -192.03797112
  atomic energy  EATOM  =       629.46422187
  Solvation  Ediel_sol  =         0.00000000
  ---------------------------------------------------
  free energy    TOTEN  =       -30.34946052 eV

  energy without entropy =      -30.34946052  energy(sigma->0) =      -30.34946052


--------------------------------------------------------------------------------------------------------




----------------------------------------- Iteration     1(  15)  ---------------------------------------


    POTLOK:  cpu time    1.1262: real time    1.1276
    SETDIJ:  cpu time    0.0063: real time    0.0063
    EDDIAG:  cpu time    0.1141: real time    0.1144
  RMM-DIIS:  cpu time    0.4181: real time    0.4189
    ORTHCH:  cpu time    0.0047: real time    0.0046
       DOS:  cpu time    0.0002: real time    0.0002
    CHARGE:  cpu time    0.1454: real time    0.1455
    MIXING:  cpu time    0.0367: real time    0.0368
    --------------------------------------------
      LOOP:  cpu time    1.8525: real time    1.8568

 eigenvalue-minimisations  :    24
 total energy-change (2. order) : 0.1371012E+00  (-0.2297158E-01)
 number of electron      14.0000002 magnetization 
 augmentation part        0.8319742 magnetization 

 Broyden mixing:
  rms(total) = 0.41689E-01    rms(broyden)= 0.41682E-01
  rms(prec ) = 0.58587E-01
  weight for this iteration     100.00

 eigenvalues of (default mixing * dielectric matrix)
  average eigenvalue GAMMA=   1.6675
  2.3065  1.3480  1.3480

 Free energy of the ion-electron system (eV)
  ---------------------------------------------------
  alpha Z        PSCENC =         0.18207619
  Ewald energy   TEWEN  =       433.04938679
  -Hartree energ DENC   =      -957.05245120
  -exchange      EXHF   =         0.00000000
  -V(xc)+E(xc)   XCENC  =        53.75459073
  PAW double counting   =       394.90219747     -398.37803167
  entropy T*S    EENTRO =        -0.00000000
  eigenvalues    EBANDS =      -186.13434947
  atomic energy  EATOM  =       629.46422187
  Solvation  Ediel_sol  =         0.00000000
  ---------------------------------------------------
  free energy    TOTEN  =       -30.21235928 eV

  energy without entropy =      -30.21235928  energy(sigma->0) =      -30.21235928


--------------------------------------------------------------------------------------------------------




----------------------------------------- Iteration     1(  16)  ---------------------------------------


    POTLOK:  cpu time    1.2192: real time    1.2204
    SETDIJ:  cpu time    0.0038: real time    0.0038
    EDDIAG:  cpu time    0.1496: real time    0.1499
  RMM-DIIS:  cpu time    0.4319: real time    0.4325
    ORTHCH:  cpu time    0.0033: real time    0.0033
       DOS:  cpu time    0.0002: real time    0.0002
    CHARGE:  cpu time    0.1370: real time    0.1371
    MIXING:  cpu time    0.0367: real time    0.0367
    --------------------------------------------
      LOOP:  cpu time    1.9828: real time    1.9869

 eigenvalue-minimisations  :    25
 total energy-change (2. order) : 0.1184056E-01  (-0.4392653E-02)
 number of electron      14.0000002 magnetization 
 augmentation part        0.8257254 magnetization 

 Broyden mixing:
  rms(total) = 0.21609E-01    rms(broyden)= 0.21605E-01
  rms(prec ) = 0.32940E-01
  weight for this iteration     100.00

 eigenvalues of (default mixing * dielectric matrix)
  average eigenvalue GAMMA=   1.6800
  2.1857  2.1857  1.1743  1.1743

 Free energy of the ion-electron system (eV)
  ---------------------------------------------------
  alpha Z        PSCENC =         0.18207619
  Ewald energy   TEWEN  =       433.04938679
  -Hartree energ DENC   =      -960.55863709
  -exchange      EXHF   =         0.00000000
  -V(xc)+E(xc)   XCENC  =        53.93194127
  PAW double counting   =       398.17518369     -401.65389667
  entropy T*S    EENTRO =        -0.00000000
  eigenvalues    EBANDS =      -182.79079477
  atomic energy  EATOM  =       629.46422187
  Solvation  Ediel_sol  =         0.00000000
  ---------------------------------------------------
  free energy    TOTEN  =       -30.20051871 eV

  energy without entropy =      -30.20051871  energy(sigma->0) =      -30.20051871


--------------------------------------------------------------------------------------------------------




----------------------------------------- Iteration     1(  17)  ---------------------------------------


    POTLOK:  cpu time    1.1804: real time    1.1810
    SETDIJ:  cpu time    0.0029: real time    0.0029
    EDDIAG:  cpu time    0.1483: real time    0.1486
  RMM-DIIS:  cpu time    0.4401: real time    0.4413
    ORTHCH:  cpu time    0.0036: real time    0.0036
       DOS:  cpu time    0.0000: real time    0.0002
    CHARGE:  cpu time    0.1508: real time    0.1516
    MIXING:  cpu time    0.0350: real time    0.0350
    --------------------------------------------
      LOOP:  cpu time    1.9640: real time    1.9669

 eigenvalue-minimisations  :    24
 total energy-change (2. order) :-0.2499488E-02  (-0.5925348E-03)
 number of electron      14.0000002 magnetization 
 augmentation part        0.8272559 magnetization 

 Broyden mixing:
  rms(total) = 0.11171E-01    rms(broyden)= 0.11170E-01
  rms(prec ) = 0.20443E-01
  weight for this iteration     100.00

 eigenvalues of (default mixing * dielectric matrix)
  average eigenvalue GAMMA=   1.7671
  2.8551  2.2580  1.1178  1.1178  1.4870

 Free energy of the ion-electron system (eV)
  ---------------------------------------------------
  alpha Z        PSCENC =         0.18207619
  Ewald energy   TEWEN  =       433.04938679
  -Hartree energ DENC   =      -961.13296599
  -exchange      EXHF   =         0.00000000
  -V(xc)+E(xc)   XCENC  =        53.90165740
  PAW double counting   =       394.77562426     -398.23535667
  entropy T*S    EENTRO =        -0.00000000
  eigenvalues    EBANDS =      -182.20766204
  atomic energy  EATOM  =       629.46422187
  Solvation  Ediel_sol  =         0.00000000
  ---------------------------------------------------
  free energy    TOTEN  =       -30.20301820 eV

  energy without entropy =      -30.20301820  energy(sigma->0) =      -30.20301820


--------------------------------------------------------------------------------------------------------




----------------------------------------- Iteration     1(  18)  ---------------------------------------


    POTLOK:  cpu time    1.1540: real time    1.1547
    SETDIJ:  cpu time    0.0053: real time    0.0053
    EDDIAG:  cpu time    0.1471: real time    0.1473
  RMM-DIIS:  cpu time    0.4030: real time    0.4034
    ORTHCH:  cpu time    0.0032: real time    0.0032
       DOS:  cpu time    0.0002: real time    0.0002
    CHARGE:  cpu time    0.1583: real time    0.1584
    MIXING:  cpu time    0.0399: real time    0.0399
    --------------------------------------------
      LOOP:  cpu time    1.9122: real time    1.9149

 eigenvalue-minimisations  :    24
 total energy-change (2. order) :-0.5330714E-03  (-0.4669342E-03)
 number of electron      14.0000002 magnetization 
 augmentation part        0.8262200 magnetization 

 Broyden mixing:
  rms(total) = 0.66213E-02    rms(broyden)= 0.66210E-02
  rms(prec ) = 0.11582E-01
  weight for this iteration     100.00

 eigenvalues of (default mixing * dielectric matrix)
  average eigenvalue GAMMA=   1.9849
  3.7328  2.4907  2.1432  1.0226  1.2600  1.2600

 Free energy of the ion-electron system (eV)
  ---------------------------------------------------
  alpha Z        PSCENC =         0.18207619
  Ewald energy   TEWEN  =       433.04938679
  -Hartree energ DENC   =      -963.15921437
  -exchange      EXHF   =         0.00000000
  -V(xc)+E(xc)   XCENC  =        53.97183971
  PAW double counting   =       395.51203602     -398.97339519
  entropy T*S    EENTRO =        -0.00000000
  eigenvalues    EBANDS =      -180.25050229
  atomic energy  EATOM  =       629.46422187
  Solvation  Ediel_sol  =         0.00000000
  ---------------------------------------------------
  free energy    TOTEN  =       -30.20355127 eV

  energy without entropy =      -30.20355127  energy(sigma->0) =      -30.20355127


--------------------------------------------------------------------------------------------------------




----------------------------------------- Iteration     1(  19)  ---------------------------------------


    POTLOK:  cpu time    1.1890: real time    1.1895
    SETDIJ:  cpu time    0.0071: real time    0.0071
    EDDIAG:  cpu time    0.1049: real time    0.1152
  RMM-DIIS:  cpu time    0.3957: real time    0.3963
    ORTHCH:  cpu time    0.0030: real time    0.0030
       DOS:  cpu time    0.0002: real time    0.0002
    CHARGE:  cpu time    0.1511: real time    0.1512
    MIXING:  cpu time    0.0409: real time    0.0409
    --------------------------------------------
      LOOP:  cpu time    1.8931: real time    1.9062

 eigenvalue-minimisations  :    24
 total energy-change (2. order) :-0.6167085E-02  (-0.6613814E-03)
 number of electron      14.0000002 magnetization 
 augmentation part        0.8239378 magnetization 

 Broyden mixing:
  rms(total) = 0.10729E-01    rms(broyden)= 0.10727E-01
  rms(prec ) = 0.12811E-01
  weight for this iteration     100.00

 eigenvalues of (default mixing * dielectric matrix)
  average eigenvalue GAMMA=   1.9490
  4.2840  2.5613  2.0575  1.6600  1.0378  1.0378  1.0046

 Free energy of the ion-electron system (eV)
  ---------------------------------------------------
  alpha Z        PSCENC =         0.18207619
  Ewald energy   TEWEN  =       433.04938679
  -Hartree energ DENC   =      -964.40942020
  -exchange      EXHF   =         0.00000000
  -V(xc)+E(xc)   XCENC  =        53.99467680
  PAW double counting   =       395.71082253     -399.18131243
  entropy T*S    EENTRO =        -0.00000000
  eigenvalues    EBANDS =      -179.02016990
  atomic energy  EATOM  =       629.46422187
  Solvation  Ediel_sol  =         0.00000000
  ---------------------------------------------------
  free energy    TOTEN  =       -30.20971836 eV

  energy without entropy =      -30.20971836  energy(sigma->0) =      -30.20971836


--------------------------------------------------------------------------------------------------------




----------------------------------------- Iteration     1(  20)  ---------------------------------------


    POTLOK:  cpu time    1.1822: real time    1.1833
    SETDIJ:  cpu time    0.0030: real time    0.0030
    EDDIAG:  cpu time    0.1827: real time    0.1832
  RMM-DIIS:  cpu time    0.4000: real time    0.4133
    ORTHCH:  cpu time    0.0030: real time    0.0030
       DOS:  cpu time    0.0003: real time    0.0003
    CHARGE:  cpu time    0.1549: real time    0.1550
    MIXING:  cpu time    0.0393: real time    0.0393
    --------------------------------------------
      LOOP:  cpu time    1.9665: real time    1.9828

 eigenvalue-minimisations  :    24
 total energy-change (2. order) :-0.2291263E-02  (-0.2387224E-03)
 number of electron      14.0000002 magnetization 
 augmentation part        0.8252033 magnetization 

 Broyden mixing:
  rms(total) = 0.23191E-02    rms(broyden)= 0.23175E-02
  rms(prec ) = 0.41573E-02
  weight for this iteration     100.00

 eigenvalues of (default mixing * dielectric matrix)
  average eigenvalue GAMMA=   2.1632
  5.1391  3.1319  2.4499  1.7135  1.7135  0.9826  1.0875  1.0875

 Free energy of the ion-electron system (eV)
  ---------------------------------------------------
  alpha Z        PSCENC =         0.18207619
  Ewald energy   TEWEN  =       433.04938679
  -Hartree energ DENC   =      -964.01233634
  -exchange      EXHF   =         0.00000000
  -V(xc)+E(xc)   XCENC  =        53.96907051
  PAW double counting   =       394.96789282     -398.42969704
  entropy T*S    EENTRO =        -0.00000000
  eigenvalues    EBANDS =      -179.40262442
  atomic energy  EATOM  =       629.46422187
  Solvation  Ediel_sol  =         0.00000000
  ---------------------------------------------------
  free energy    TOTEN  =       -30.21200962 eV

  energy without entropy =      -30.21200962  energy(sigma->0) =      -30.21200962


--------------------------------------------------------------------------------------------------------




----------------------------------------- Iteration     1(  21)  ---------------------------------------


    POTLOK:  cpu time    1.2135: real time    1.2143
    SETDIJ:  cpu time    0.0040: real time    0.0040
    EDDIAG:  cpu time    0.0992: real time    0.1124
  RMM-DIIS:  cpu time    0.4352: real time    0.4355
    ORTHCH:  cpu time    0.0046: real time    0.0046
       DOS:  cpu time    0.0003: real time    0.0002
    CHARGE:  cpu time    0.1413: real time    0.1416
    MIXING:  cpu time    0.0434: real time    0.0435
    --------------------------------------------
      LOOP:  cpu time    1.9427: real time    1.9584

 eigenvalue-minimisations  :    24
 total energy-change (2. order) :-0.3500841E-02  (-0.6540653E-04)
 number of electron      14.0000002 magnetization 
 augmentation part        0.8254720 magnetization 

 Broyden mixing:
  rms(total) = 0.26673E-02    rms(broyden)= 0.26670E-02
  rms(prec ) = 0.33114E-02
  weight for this iteration     100.00

 eigenvalues of (default mixing * dielectric matrix)
  average eigenvalue GAMMA=   2.1772
  6.0440  3.3323  2.2075  2.2075  1.6514  1.0244  1.0244  1.0518  1.0518

 Free energy of the ion-electron system (eV)
  ---------------------------------------------------
  alpha Z        PSCENC =         0.18207619
  Ewald energy   TEWEN  =       433.04938679
  -Hartree energ DENC   =      -964.16047352
  -exchange      EXHF   =         0.00000000
  -V(xc)+E(xc)   XCENC  =        53.96546337
  PAW double counting   =       395.17734534     -398.63854363
  entropy T*S    EENTRO =        -0.00000000
  eigenvalues    EBANDS =      -179.25498686
  atomic energy  EATOM  =       629.46422187
  Solvation  Ediel_sol  =         0.00000000
  ---------------------------------------------------
  free energy    TOTEN  =       -30.21551046 eV

  energy without entropy =      -30.21551046  energy(sigma->0) =      -30.21551046


--------------------------------------------------------------------------------------------------------




----------------------------------------- Iteration     1(  22)  ---------------------------------------


    POTLOK:  cpu time    1.1867: real time    1.1871
    SETDIJ:  cpu time    0.0050: real time    0.0050
    EDDIAG:  cpu time    0.1156: real time    0.1165
  RMM-DIIS:  cpu time    0.4298: real time    0.4304
    ORTHCH:  cpu time    0.0029: real time    0.0029
       DOS:  cpu time    0.0010: real time    0.0002
    CHARGE:  cpu time    0.1422: real time    0.1432
    MIXING:  cpu time    0.0428: real time    0.0428
    --------------------------------------------
      LOOP:  cpu time    1.9269: real time    1.9309

 eigenvalue-minimisations  :    25
 total energy-change (2. order) :-0.8073090E-03  (-0.1687206E-04)
 number of electron      14.0000002 magnetization 
 augmentation part        0.8252412 magnetization 

 Broyden mixing:
  rms(total) = 0.11830E-02    rms(broyden)= 0.11829E-02
  rms(prec ) = 0.16621E-02
  weight for this iteration     100.00

 eigenvalues of (default mixing * dielectric matrix)
  average eigenvalue GAMMA=   2.4050
  7.2625  4.0946  2.5896  2.1040  2.1040  1.7716  1.0775  1.0775  1.0304  0.9380

 Free energy of the ion-electron system (eV)
  ---------------------------------------------------
  alpha Z        PSCENC =         0.18207619
  Ewald energy   TEWEN  =       433.04938679
  -Hartree energ DENC   =      -964.20178150
  -exchange      EXHF   =         0.00000000
  -V(xc)+E(xc)   XCENC  =        53.96445893
  PAW double counting   =       395.18459458     -398.64626322
  entropy T*S    EENTRO =        -0.00000000
  eigenvalues    EBANDS =      -179.21301141
  atomic energy  EATOM  =       629.46422187
  Solvation  Ediel_sol  =         0.00000000
  ---------------------------------------------------
  free energy    TOTEN  =       -30.21631777 eV

  energy without entropy =      -30.21631777  energy(sigma->0) =      -30.21631777


--------------------------------------------------------------------------------------------------------




----------------------------------------- Iteration     1(  23)  ---------------------------------------


    POTLOK:  cpu time    1.1757: real time    1.1775
    SETDIJ:  cpu time    0.0049: real time    0.0049
    EDDIAG:  cpu time    0.1389: real time    0.1392
  RMM-DIIS:  cpu time    0.4036: real time    0.4045
    ORTHCH:  cpu time    0.0028: real time    0.0028
       DOS:  cpu time    0.0002: real time    0.0002
    CHARGE:  cpu time    0.1394: real time    0.1396
    MIXING:  cpu time    0.0439: real time    0.0645
    --------------------------------------------
      LOOP:  cpu time    1.9107: real time    1.9358

 eigenvalue-minimisations  :    24
 total energy-change (2. order) :-0.8581626E-03  (-0.1280305E-04)
 number of electron      14.0000002 magnetization 
 augmentation part        0.8250307 magnetization 

 Broyden mixing:
  rms(total) = 0.52543E-03    rms(broyden)= 0.52515E-03
  rms(prec ) = 0.70878E-03
  weight for this iteration     100.00

 eigenvalues of (default mixing * dielectric matrix)
  average eigenvalue GAMMA=   2.3378
  7.7579  4.2415  2.5668  2.4060  1.9662  1.6443  1.0716  1.0716  1.0383  1.0383
  0.9127

 Free energy of the ion-electron system (eV)
  ---------------------------------------------------
  alpha Z        PSCENC =         0.18207619
  Ewald energy   TEWEN  =       433.04938679
  -Hartree energ DENC   =      -964.25618532
  -exchange      EXHF   =         0.00000000
  -V(xc)+E(xc)   XCENC  =        53.96544858
  PAW double counting   =       395.23690051     -398.69933202
  entropy T*S    EENTRO =        -0.00000000
  eigenvalues    EBANDS =      -179.15969254
  atomic energy  EATOM  =       629.46422187
  Solvation  Ediel_sol  =         0.00000000
  ---------------------------------------------------
  free energy    TOTEN  =       -30.21717593 eV

  energy without entropy =      -30.21717593  energy(sigma->0) =      -30.21717593


--------------------------------------------------------------------------------------------------------




----------------------------------------- Iteration     1(  24)  ---------------------------------------


    POTLOK:  cpu time    1.1747: real time    1.1763
    SETDIJ:  cpu time    0.0044: real time    0.0044
    EDDIAG:  cpu time    0.1533: real time    0.1538
  RMM-DIIS:  cpu time    0.4684: real time    0.4728
    ORTHCH:  cpu time    0.0020: real time    0.0029
       DOS:  cpu time    0.0002: real time    0.0002
    CHARGE:  cpu time    0.1485: real time    0.1486
    MIXING:  cpu time    0.0434: real time    0.0434
    --------------------------------------------
      LOOP:  cpu time    1.9971: real time    2.0074

 eigenvalue-minimisations  :    26
 total energy-change (2. order) :-0.1125452E-03  (-0.2606274E-05)
 number of electron      14.0000002 magnetization 
 augmentation part        0.8249436 magnetization 

 Broyden mixing:
  rms(total) = 0.75168E-03    rms(broyden)= 0.75161E-03
  rms(prec ) = 0.90117E-03
  weight for this iteration     100.00

 eigenvalues of (default mixing * dielectric matrix)
  average eigenvalue GAMMA=   2.5040
  8.6035  5.0701  2.7875  2.7875  2.0013  2.0013  1.7009  1.1042  1.1042  1.0079
  1.0079  0.8724

 Free energy of the ion-electron system (eV)
  ---------------------------------------------------
  alpha Z        PSCENC =         0.18207619
  Ewald energy   TEWEN  =       433.04938679
  -Hartree energ DENC   =      -964.26657381
  -exchange      EXHF   =         0.00000000
  -V(xc)+E(xc)   XCENC  =        53.96536060
  PAW double counting   =       395.23319065     -398.69576133
  entropy T*S    EENTRO =        -0.00000000
  eigenvalues    EBANDS =      -179.14918944
  atomic energy  EATOM  =       629.46422187
  Solvation  Ediel_sol  =         0.00000000
  ---------------------------------------------------
  free energy    TOTEN  =       -30.21728848 eV

  energy without entropy =      -30.21728848  energy(sigma->0) =      -30.21728848


--------------------------------------------------------------------------------------------------------




----------------------------------------- Iteration     1(  25)  ---------------------------------------


    POTLOK:  cpu time    1.1677: real time    1.1681
    SETDIJ:  cpu time    0.0033: real time    0.0033
    EDDIAG:  cpu time    0.1752: real time    0.1755
  RMM-DIIS:  cpu time    0.4380: real time    0.4384
    ORTHCH:  cpu time    0.0031: real time    0.0031
       DOS:  cpu time    0.0002: real time    0.0002
    CHARGE:  cpu time    0.1382: real time    0.1383
    MIXING:  cpu time    0.0406: real time    0.0406
    --------------------------------------------
      LOOP:  cpu time    1.9673: real time    1.9701

 eigenvalue-minimisations  :    24
 total energy-change (2. order) :-0.1556501E-03  (-0.1929991E-05)
 number of electron      14.0000002 magnetization 
 augmentation part        0.8250773 magnetization 

 Broyden mixing:
  rms(total) = 0.24251E-03    rms(broyden)= 0.24236E-03
  rms(prec ) = 0.30438E-03
  weight for this iteration     100.00

 eigenvalues of (default mixing * dielectric matrix)
  average eigenvalue GAMMA=   2.4421
  8.7926  5.2705  3.2955  2.3061  2.3061  1.7315  1.7315  1.1456  1.1456  1.0592
  1.0592  0.9942  0.9097

 Free energy of the ion-electron system (eV)
  ---------------------------------------------------
  alpha Z        PSCENC =         0.18207619
  Ewald energy   TEWEN  =       433.04938679
  -Hartree energ DENC   =      -964.22302262
  -exchange      EXHF   =         0.00000000
  -V(xc)+E(xc)   XCENC  =        53.96312527
  PAW double counting   =       395.17827327     -398.64036029
  entropy T*S    EENTRO =        -0.00000000
  eigenvalues    EBANDS =      -179.19114461
  atomic energy  EATOM  =       629.46422187
  Solvation  Ediel_sol  =         0.00000000
  ---------------------------------------------------
  free energy    TOTEN  =       -30.21744413 eV

  energy without entropy =      -30.21744413  energy(sigma->0) =      -30.21744413


--------------------------------------------------------------------------------------------------------




----------------------------------------- Iteration     1(  26)  ---------------------------------------


    POTLOK:  cpu time    1.1097: real time    1.1106
    SETDIJ:  cpu time    0.0038: real time    0.0038
    EDDIAG:  cpu time    0.1508: real time    0.1514
  RMM-DIIS:  cpu time    0.4025: real time    0.4028
    ORTHCH:  cpu time    0.0034: real time    0.0034
       DOS:  cpu time    0.0002: real time    0.0002
    CHARGE:  cpu time    0.1382: real time    0.1382
    MIXING:  cpu time    0.0417: real time    0.0417
    --------------------------------------------
      LOOP:  cpu time    1.8516: real time    1.8547

 eigenvalue-minimisations  :    24
 total energy-change (2. order) :-0.2782459E-04  (-0.1950328E-06)
 number of electron      14.0000002 magnetization 
 augmentation part        0.8250768 magnetization 

 Broyden mixing:
  rms(total) = 0.16346E-03    rms(broyden)= 0.16345E-03
  rms(prec ) = 0.20597E-03
  weight for this iteration     100.00

 eigenvalues of (default mixing * dielectric matrix)
  average eigenvalue GAMMA=   2.5468
  9.1387  5.7579  3.7928  2.8023  2.5037  1.9100  1.9100  1.6439  1.1335  1.1335
  1.0213  1.0213  0.9432  0.9432

 Free energy of the ion-electron system (eV)
  ---------------------------------------------------
  alpha Z        PSCENC =         0.18207619
  Ewald energy   TEWEN  =       433.04938679
  -Hartree energ DENC   =      -964.23480958
  -exchange      EXHF   =         0.00000000
  -V(xc)+E(xc)   XCENC  =        53.96375354
  PAW double counting   =       395.19105552     -398.65318376
  entropy T*S    EENTRO =        -0.00000000
  eigenvalues    EBANDS =      -179.17997252
  atomic energy  EATOM  =       629.46422187
  Solvation  Ediel_sol  =         0.00000000
  ---------------------------------------------------
  free energy    TOTEN  =       -30.21747195 eV

  energy without entropy =      -30.21747195  energy(sigma->0) =      -30.21747195


--------------------------------------------------------------------------------------------------------




----------------------------------------- Iteration     1(  27)  ---------------------------------------


    POTLOK:  cpu time    1.1430: real time    1.1434
    SETDIJ:  cpu time    0.0048: real time    0.0048
    EDDIAG:  cpu time    0.1577: real time    0.1584
  RMM-DIIS:  cpu time    0.3847: real time    0.3851
    ORTHCH:  cpu time    0.0031: real time    0.0031
       DOS:  cpu time    0.0002: real time    0.0002
    CHARGE:  cpu time    0.1366: real time    0.1367
    MIXING:  cpu time    0.0443: real time    0.0443
    --------------------------------------------
      LOOP:  cpu time    1.8755: real time    1.8784

 eigenvalue-minimisations  :    24
 total energy-change (2. order) :-0.3228676E-04  (-0.1195772E-06)
 number of electron      14.0000002 magnetization 
 augmentation part        0.8250523 magnetization 

 Broyden mixing:
  rms(total) = 0.63846E-04    rms(broyden)= 0.63817E-04
  rms(prec ) = 0.79982E-04
  weight for this iteration     100.00

 eigenvalues of (default mixing * dielectric matrix)
  average eigenvalue GAMMA=   2.4981
  9.3558  5.8509  4.1399  2.7852  2.3951  1.8911  1.8911  1.7418  1.1875  1.1875
  1.0494  1.0494  1.0418  1.0165  0.8887

 Free energy of the ion-electron system (eV)
  ---------------------------------------------------
  alpha Z        PSCENC =         0.18207619
  Ewald energy   TEWEN  =       433.04938679
  -Hartree energ DENC   =      -964.24239854
  -exchange      EXHF   =         0.00000000
  -V(xc)+E(xc)   XCENC  =        53.96395116
  PAW double counting   =       395.20610874     -398.66835923
  entropy T*S    EENTRO =        -0.00000000
  eigenvalues    EBANDS =      -179.17249122
  atomic energy  EATOM  =       629.46422187
  Solvation  Ediel_sol  =         0.00000000
  ---------------------------------------------------
  free energy    TOTEN  =       -30.21750424 eV

  energy without entropy =      -30.21750424  energy(sigma->0) =      -30.21750424


--------------------------------------------------------------------------------------------------------




----------------------------------------- Iteration     1(  28)  ---------------------------------------


    POTLOK:  cpu time    1.1127: real time    1.1131
    SETDIJ:  cpu time    0.0039: real time    0.0039
    EDDIAG:  cpu time    0.1505: real time    0.1508
  RMM-DIIS:  cpu time    0.3974: real time    0.3977
    ORTHCH:  cpu time    0.0030: real time    0.0030
       DOS:  cpu time    0.0002: real time    0.0002
    CHARGE:  cpu time    0.1417: real time    0.1417
    MIXING:  cpu time    0.0443: real time    0.0443
    --------------------------------------------
      LOOP:  cpu time    1.8546: real time    1.8573

 eigenvalue-minimisations  :    23
 total energy-change (2. order) :-0.5399167E-05  (-0.1049379E-07)
 number of electron      14.0000002 magnetization 
 augmentation part        0.8250605 magnetization 

 Broyden mixing:
  rms(total) = 0.21894E-04    rms(broyden)= 0.21889E-04
  rms(prec ) = 0.36489E-04
  weight for this iteration     100.00

 eigenvalues of (default mixing * dielectric matrix)
  average eigenvalue GAMMA=   2.6074
  9.4858  6.3898  4.7730  3.4617  2.6312  2.2963  1.8758  1.8758  1.5899  1.1420
  1.1420  0.9019  1.0533  1.0533  1.0232  1.0232

 Free energy of the ion-electron system (eV)
  ---------------------------------------------------
  alpha Z        PSCENC =         0.18207619
  Ewald energy   TEWEN  =       433.04938679
  -Hartree energ DENC   =      -964.24095404
  -exchange      EXHF   =         0.00000000
  -V(xc)+E(xc)   XCENC  =        53.96383431
  PAW double counting   =       395.19952935     -398.66173067
  entropy T*S    EENTRO =        -0.00000000
  eigenvalues    EBANDS =      -179.17387344
  atomic energy  EATOM  =       629.46422187
  Solvation  Ediel_sol  =         0.00000000
  ---------------------------------------------------
  free energy    TOTEN  =       -30.21750964 eV

  energy without entropy =      -30.21750964  energy(sigma->0) =      -30.21750964


--------------------------------------------------------------------------------------------------------




----------------------------------------- Iteration     1(  29)  ---------------------------------------


    POTLOK:  cpu time    1.1289: real time    1.1297
    SETDIJ:  cpu time    0.0032: real time    0.0032
    EDDIAG:  cpu time    0.1477: real time    0.1479
  RMM-DIIS:  cpu time    0.3825: real time    0.3829
    ORTHCH:  cpu time    0.0031: real time    0.0031
       DOS:  cpu time    0.0002: real time    0.0002
    CHARGE:  cpu time    0.1383: real time    0.1383
    MIXING:  cpu time    0.0462: real time    0.0462
    --------------------------------------------
      LOOP:  cpu time    1.8514: real time    1.8542

 eigenvalue-minimisations  :    22
 total energy-change (2. order) :-0.7007665E-05  (-0.8964104E-08)
 number of electron      14.0000002 magnetization 
 augmentation part        0.8250583 magnetization 

 Broyden mixing:
  rms(total) = 0.10705E-04    rms(broyden)= 0.10704E-04
  rms(prec ) = 0.15064E-04
  weight for this iteration     100.00

 eigenvalues of (default mixing * dielectric matrix)
  average eigenvalue GAMMA=   2.5780
  9.5686  6.5477  4.9677  3.4748  2.5775  2.5775  1.9462  1.9462  1.6567  1.2263
  1.2263  1.0691  1.0691  1.1075  0.9960  0.9343  0.9343

 Free energy of the ion-electron system (eV)
  ---------------------------------------------------
  alpha Z        PSCENC =         0.18207619
  Ewald energy   TEWEN  =       433.04938679
  -Hartree energ DENC   =      -964.24163650
  -exchange      EXHF   =         0.00000000
  -V(xc)+E(xc)   XCENC  =        53.96387641
  PAW double counting   =       395.20104638     -398.66325980
  entropy T*S    EENTRO =        -0.00000000
  eigenvalues    EBANDS =      -179.17322799
  atomic energy  EATOM  =       629.46422187
  Solvation  Ediel_sol  =         0.00000000
  ---------------------------------------------------
  free energy    TOTEN  =       -30.21751665 eV

  energy without entropy =      -30.21751665  energy(sigma->0) =      -30.21751665


--------------------------------------------------------------------------------------------------------




----------------------------------------- Iteration     1(  30)  ---------------------------------------


    POTLOK:  cpu time    1.2000: real time    1.2010
    SETDIJ:  cpu time    0.0068: real time    0.0068
    EDDIAG:  cpu time    0.1201: real time    0.1204
  RMM-DIIS:  cpu time    0.3339: real time    0.3343
    ORTHCH:  cpu time    0.0034: real time    0.0034
       DOS:  cpu time    0.0002: real time    0.0002
    CHARGE:  cpu time    0.1393: real time    0.1394
    MIXING:  cpu time    0.0462: real time    0.0462
    --------------------------------------------
      LOOP:  cpu time    1.8509: real time    1.8542

 eigenvalue-minimisations  :    17
 total energy-change (2. order) :-0.1504628E-05  (-0.7971650E-09)
 number of electron      14.0000002 magnetization 
 augmentation part        0.8250591 magnetization 

 Broyden mixing:
  rms(total) = 0.52702E-05    rms(broyden)= 0.52700E-05
  rms(prec ) = 0.77124E-05
  weight for this iteration     100.00

 eigenvalues of (default mixing * dielectric matrix)
  average eigenvalue GAMMA=   2.6402
  9.6789  7.1040  5.3950  3.8486  2.9731  2.3989  2.3989  1.8909  1.8909  1.6133
  1.1642  1.1642  1.0448  1.0448  1.0346  1.0024  0.9611  0.9151

 Free energy of the ion-electron system (eV)
  ---------------------------------------------------
  alpha Z        PSCENC =         0.18207619
  Ewald energy   TEWEN  =       433.04938679
  -Hartree energ DENC   =      -964.24113993
  -exchange      EXHF   =         0.00000000
  -V(xc)+E(xc)   XCENC  =        53.96385199
  PAW double counting   =       395.19952439     -398.66173544
  entropy T*S    EENTRO =        -0.00000000
  eigenvalues    EBANDS =      -179.17370401
  atomic energy  EATOM  =       629.46422187
  Solvation  Ediel_sol  =         0.00000000
  ---------------------------------------------------
  free energy    TOTEN  =       -30.21751815 eV

  energy without entropy =      -30.21751815  energy(sigma->0) =      -30.21751815


--------------------------------------------------------------------------------------------------------




----------------------------------------- Iteration     1(  31)  ---------------------------------------


    POTLOK:  cpu time    1.2139: real time    1.2143
    SETDIJ:  cpu time    0.0081: real time    0.0081
    EDDIAG:  cpu time    0.1078: real time    0.1080
  RMM-DIIS:  cpu time    0.3226: real time    0.3230
    ORTHCH:  cpu time    0.0029: real time    0.0029
       DOS:  cpu time    0.0002: real time    0.0002
    CHARGE:  cpu time    0.1343: real time    0.1343
    MIXING:  cpu time    0.0544: real time    0.0544
    --------------------------------------------
      LOOP:  cpu time    1.8452: real time    1.8479

 eigenvalue-minimisations  :    16
 total energy-change (2. order) :-0.7541770E-06  (-0.7823928E-09)
 number of electron      14.0000002 magnetization 
 augmentation part        0.8250594 magnetization 

 Broyden mixing:
  rms(total) = 0.35261E-05    rms(broyden)= 0.35257E-05
  rms(prec ) = 0.47271E-05
  weight for this iteration     100.00

 eigenvalues of (default mixing * dielectric matrix)
  average eigenvalue GAMMA=   2.6356
  9.7001  7.3309  5.4686  4.0956  2.9484  2.4100  2.3805  2.3805  1.7758  1.7758
  1.4590  1.1826  1.1826  1.0583  1.0583  0.9141  1.0160  0.9696  0.9696

 Free energy of the ion-electron system (eV)
  ---------------------------------------------------
  alpha Z        PSCENC =         0.18207619
  Ewald energy   TEWEN  =       433.04938679
  -Hartree energ DENC   =      -964.24129762
  -exchange      EXHF   =         0.00000000
[...]


 VOLUME and BASIS-vectors are now :
 -----------------------------------------------------------------------------
  energy-cutoff  :      600.00
  volume of cell :     4096.00
      direct lattice vectors                 reciprocal lattice vectors
    16.000000000  0.000000000  0.000000000     0.062500000  0.000000000  0.000000000
     0.000000000 16.000000000  0.000000000     0.000000000  0.062500000  0.000000000
     0.000000000  0.000000000 16.000000000     0.000000000  0.000000000  0.062500000

  length of vectors
    16.000000000 16.000000000 16.000000000     0.062500000  0.062500000  0.062500000


 FORCES acting on ions
    electron-ion (+dipol)            ewald-force                    non-local-force                 convergence-correction
 -----------------------------------------------------------------------------------------------
   0.109E+03 -.141E+02 -.618E+02   -.114E+03 0.150E+02 0.645E+02   0.480E+01 -.611E+00 -.297E+01   -.342E-05 -.208E-05 0.123E-05
   -.157E+03 -.277E+02 0.647E+02   0.190E+03 0.611E+02 -.638E+02   -.329E+02 -.333E+02 -.850E+00   -.194E-04 0.683E-06 0.110E-04
   0.102E+02 -.566E+02 -.347E+02   -.101E+02 0.616E+02 0.374E+02   -.634E-01 -.508E+01 -.261E+01   -.283E-06 -.399E-05 -.203E-05
   -.146E+02 0.834E+02 0.510E+02   0.150E+02 -.907E+02 -.550E+02   -.376E+00 0.731E+01 0.402E+01   -.114E-05 -.687E-06 0.353E-06
   0.579E+02 -.224E+00 0.321E+02   -.622E+02 0.170E+00 -.355E+02   0.433E+01 0.925E-01 0.343E+01   0.370E-05 -.119E-06 0.323E-05
   0.177E+02 0.428E+02 -.483E+02   -.184E+02 -.472E+02 0.526E+02   0.685E+00 0.411E+01 -.394E+01   0.291E-06 0.316E-05 -.345E-05
 -----------------------------------------------------------------------------------------------
   0.236E+02 0.275E+02 0.293E+01   -.142E-13 0.711E-14 -.711E-14   -.236E+02 -.275E+02 -.293E+01   -.203E-04 -.304E-05 0.103E-04
 
 
 POSITION                                       TOTAL-FORCE (eV/Angst)
 -----------------------------------------------------------------------------------
      7.11233      7.90135      7.90122         0.017337      0.236971     -0.305252
      8.36029      7.78172      7.20894         0.027656      0.013319     -0.024288
      7.12611      8.87713      8.40441        -0.003570     -0.019884      0.020508
      8.37039      6.92338      6.75452         0.000438      0.001558      0.000420
      6.24999      7.87532      7.21108        -0.000711      0.031106     -0.023756
      6.98430      7.11457      8.64620        -0.041150     -0.263070      0.332368
 -----------------------------------------------------------------------------------
    total drift:                               -0.000235     -0.000064      0.000174


--------------------------------------------------------------------------------------------------------



  FREE ENERGIE OF THE ION-ELECTRON SYSTEM (eV)
  ---------------------------------------------------
  free  energy   TOTEN  =       -30.24951105 eV

  energy  without entropy=      -30.24951105  energy(sigma->0) =      -30.24951105
 
 d Force =-0.3058341E-03[-0.133E-01, 0.127E-01]  d Energy =-0.8565032E-04-0.220E-03
 d Force =-0.2085076E+01[-0.210E+01,-0.207E+01]  d Ewald  =-0.2085368E+01 0.292E-03


--------------------------------------------------------------------------------------------------------


    POTLOK:  cpu time    1.2259: real time    1.2262


--------------------------------------------------------------------------------------------------------


 Finite differences progress:
  Degree of freedom:  18/ 18
  Displacement:        2/  2
  Total:              36/ 36
 
 SECOND DERIVATIVES (NOT SYMMETRIZED)
 ------------------------------------
               1X          1Y          1Z          2X          2Y          2Z          3X          3Y          3Z          4X          4Y          4Z          5X          5Y          5Z          6X          6Y          6Z 
  1X   -43.485761   -1.024264   -4.213871   17.361658   -2.274257   -7.266882    4.229254    0.837625    0.573847    0.777890    0.688138    0.028773   16.688973    0.607210   11.616521    4.427987    1.165547   -0.738389
  1Y    -1.034359  -54.250593   -1.325034    1.315865    7.757516    0.603386    1.789201   24.371164    9.508084   -3.388125    0.390740    1.850808    0.498812    4.746431    0.569477    0.818606   16.984743  -11.206721
  1Z    -4.216471   -1.295022  -49.263954   -5.367302    2.412865    9.305013    1.070602    9.950566    9.150431   -2.104869   -0.205112    1.073544   11.289419    0.410548   14.860076   -0.671379  -11.273846   14.874890
  2X    17.364665    1.310357   -5.387859  -25.920665    0.430153   11.316048    0.614577   -0.389811   -0.593891    3.000008   -1.069519   -1.952816    3.464609   -0.412648   -1.997426    1.476806    0.131467   -1.384055
  2Y    -2.268772    7.760733    2.411741    0.425776  -44.813645  -21.655263   -2.982884    0.025618    1.603081    3.117418   38.197155   18.343989   -0.182791   -0.293964   -0.051673    1.891253   -0.875897   -0.651874
  2Z    -7.243839    0.603163    9.308194   11.299064  -21.566392  -20.911152   -1.950857    0.294565    0.977538    0.238084   20.368986   10.759076    0.455946   -0.035106   -1.349883   -2.798398    0.334784    1.216226
  3X     4.229610    1.787410    1.070963    0.614156   -2.982685   -1.951865   -5.227119   -0.646065    0.195569    0.544447   -0.167105   -0.373729   -0.076698    1.951016    0.883698   -0.084396    0.057429    0.175364
  3Y     0.838826   24.373330    9.984788   -0.388334    0.024712    0.294000   -0.647912  -25.808150  -11.002012   -0.003102   -0.207356   -0.095026    0.001555   -0.074961   -0.145327    0.198966    1.692424    0.963577
  3Z     0.573990    9.470165    9.152299   -0.594115    1.603064    0.975188    0.195208  -10.967897   -9.991426   -0.288417   -0.011730    0.114927    0.153630    1.737043    0.753315   -0.040297   -1.830644   -1.004302
  4X     0.777497   -3.387643   -2.104011    3.001276    3.118755    0.236775    0.544224   -0.002860   -0.288254   -4.163534    0.283919    2.131350   -0.064766   -0.080658    0.045259   -0.094697    0.068486   -0.021119
  4Y     0.688939    0.392373   -0.205768   -1.071613   38.196906   20.456143   -0.167045   -0.208193   -0.012453    0.284797  -38.242528  -20.083095    0.135305   -0.011019   -0.075628    0.129616   -0.127539   -0.079198
  4Z     0.029069    1.851320    1.074995   -1.955274   18.256942   10.758241   -0.374031   -0.095365    0.115241    2.131759  -19.998000  -11.756407    0.043540   -0.082379   -0.169768    0.124938    0.067483   -0.022303
  5X    16.691817    0.500568   11.302587    3.462981   -0.183003    0.455511   -0.076491    0.001487    0.153788   -0.064488    0.135066    0.043947  -19.664089   -0.493964  -11.982042   -0.349730    0.039846    0.026210
  5Y     0.605679    4.748573    0.408891   -0.412982   -0.295344   -0.034409    1.951151   -0.075600    1.736183   -0.080598   -0.010766   -0.082125   -0.492147   -4.237572   -0.491556   -1.571103   -0.129291   -1.536985
  5Z    11.600722    0.570439   14.861704   -1.999132   -0.051679   -1.351769    0.884026   -0.144961    0.753450    0.045478   -0.075832   -0.170547  -11.968437   -0.492379  -15.265876    1.437343    0.194412    1.173038
  6X     4.427300    0.813830   -0.665175    1.476779    1.892271   -2.798848   -0.084989    0.198919   -0.040353   -0.094961    0.129904    0.125284   -0.350323   -1.570714    1.436999   -5.373805   -1.464210    1.942092
  6Y     1.171494   16.987744  -11.274770    0.130554   -0.876692    0.335934    0.057875    1.691957   -1.831215    0.068937   -0.127692    0.067750    0.040305   -0.129255    0.195016   -1.469164  -17.546063   12.507285
  6Z    -0.742649  -11.200611   14.876601   -1.385470   -0.652227    1.214517    0.175476    0.963578   -1.005013   -0.021233   -0.078600   -0.022956    0.026903   -1.537308    1.172961    1.946974   12.505167  -16.236110
 
 
 Eigenvectors and eigenvalues of the dynamical matrix
 ----------------------------------------------------
 
 
   1 f  =  112.793652 THz   708.703416 2PiTHz 3762.391128 cm-1   466.477215 meV
             X         Y         Z           dx          dy          dz
      7.112328  7.901355  7.901218    -0.005784   -0.007472   -0.000996  
      8.360286  7.781721  7.208940     0.011331   -0.211062   -0.116104  
      7.126112  8.877131  8.404414     0.002672    0.013345    0.005629  
      8.370392  6.923382  6.754515    -0.022221    0.854943    0.458353  
      6.249988  7.875317  7.211076    -0.002461    0.000504    0.002761  
      6.984298  7.114573  8.666199    -0.003288    0.001342    0.001133  
 
   2 f  =   91.285692 THz   573.564922 2PiTHz 3044.962849 cm-1   377.527413 meV
             X         Y         Z           dx          dy          dz
      7.112328  7.901355  7.901218    -0.051130   -0.270934   -0.116083  
      8.360286  7.781721  7.208940     0.001795    0.005838    0.002142  
      7.126112  8.877131  8.404414     0.021875    0.814836    0.414602  
      8.370392  6.923382  6.754515    -0.007191   -0.014647   -0.004014  
      6.249988  7.875317  7.211076     0.145644   -0.012114    0.125702  
      6.984298  7.114573  8.666199     0.009700    0.127583   -0.142545  
 
   3 f  =   88.961034 THz   558.958662 2PiTHz 2967.420590 cm-1   367.913395 meV
             X         Y         Z           dx          dy          dz
      7.112328  7.901355  7.901218    -0.126859    0.131097   -0.250337  
      8.360286  7.781721  7.208940     0.000551   -0.000602    0.001165  
      7.126112  8.877131  8.404414    -0.010550    0.009450   -0.021590  
      8.370392  6.923382  6.754515     0.001781   -0.001843    0.003536  
      6.249988  7.875317  7.211076     0.516710    0.032528    0.431063  
      6.984298  7.114573  8.666199    -0.070496   -0.492070    0.449887  
 
   4 f  =   87.211288 THz   547.964686 2PiTHz 2909.055362 cm-1   360.677027 meV
             X         Y         Z           dx          dy          dz
      7.112328  7.901355  7.901218     0.148215    0.065676   -0.041480  
      8.360286  7.781721  7.208940     0.008588   -0.001775   -0.005245  
      7.126112  8.877131  8.404414     0.009159    0.268241    0.135366  
      8.370392  6.923382  6.754515     0.002469   -0.003322   -0.002974  
      6.249988  7.875317  7.211076    -0.503925   -0.009014   -0.429320  
      6.984298  7.114573  8.666199    -0.055730   -0.476388    0.461647  
 
   5 f  =   43.506048 THz   273.356565 2PiTHz 1451.205526 cm-1   179.926618 meV
             X         Y         Z           dx          dy          dz
      7.112328  7.901355  7.901218    -0.110975   -0.118232    0.003286  
      8.360286  7.781721  7.208940    -0.045285   -0.070132   -0.012074  
      7.126112  8.877131  8.404414    -0.308782   -0.053496    0.094343  
      8.370392  6.923382  6.754515     0.115956    0.013820   -0.050530  
      6.249988  7.875317  7.211076     0.218527    0.540248   -0.300010  
      6.984298  7.114573  8.666199     0.540069    0.189893    0.293121  
 
   6 f  =   43.056180 THz   270.529957 2PiTHz 1436.199524 cm-1   178.066111 meV
             X         Y         Z           dx          dy          dz
      7.112328  7.901355  7.901218     0.092087   -0.081904    0.157530  
      8.360286  7.781721  7.208940     0.017257   -0.011775    0.027265  
      7.126112  8.877131  8.404414    -0.290479    0.299730   -0.574738  
      8.370392  6.923382  6.754515    -0.000982   -0.004835    0.009841  
      6.249988  7.875317  7.211076    -0.171914    0.381668    0.228609  
      6.984298  7.114573  8.666199     0.075101   -0.345556   -0.318778  
 
   7 f  =   42.522017 THz   267.173713 2PiTHz 1418.381771 cm-1   175.856990 meV
             X         Y         Z           dx          dy          dz
      7.112328  7.901355  7.901218     0.275028   -0.069276   -0.179574  
      8.360286  7.781721  7.208940     0.062508   -0.015873   -0.041203  
      7.126112  8.877131  8.404414    -0.548822   -0.137345    0.224239  
      8.370392  6.923382  6.754515     0.013084   -0.005614   -0.009789  
      6.249988  7.875317  7.211076    -0.284800    0.168798    0.368616  
      6.984298  7.114573  8.666199    -0.382753    0.277763    0.204139  
 
   8 f  =   39.719693 THz   249.566190 2PiTHz 1324.906297 cm-1   164.267504 meV
             X         Y         Z           dx          dy          dz
      7.112328  7.901355  7.901218    -0.031120   -0.348959   -0.167340  
      8.360286  7.781721  7.208940     0.138775    0.244829    0.058609  
      7.126112  8.877131  8.404414     0.303370   -0.042619   -0.173682  
      8.370392  6.923382  6.754515    -0.655815   -0.101895    0.275653  
      6.249988  7.875317  7.211076    -0.090018    0.231441    0.037456  
      6.984298  7.114573  8.666199    -0.004841    0.143279    0.206210  
 
   9 f  =   33.733491 THz   211.953776 2PiTHz 1125.228110 cm-1   139.510555 meV
             X         Y         Z           dx          dy          dz
      7.112328  7.901355  7.901218     0.170843   -0.177195    0.337955  
      8.360286  7.781721  7.208940    -0.089511    0.091722   -0.174487  
      7.126112  8.877131  8.404414    -0.098218    0.103510   -0.198533  
      8.370392  6.923382  6.754515    -0.001917    0.002218   -0.003954  
      6.249988  7.875317  7.211076     0.446316    0.068938   -0.396527  
      6.984298  7.114573  8.666199    -0.579937    0.072616    0.125481  
 
  10 f  =   31.366841 THz   197.083676 2PiTHz 1046.285172 cm-1   129.722875 meV
             X         Y         Z           dx          dy          dz
      7.112328  7.901355  7.901218    -0.464406   -0.144119    0.159116  
      8.360286  7.781721  7.208940     0.317100    0.001734   -0.159661  
      7.126112  8.877131  8.404414     0.333382    0.048805   -0.141855  
      8.370392  6.923382  6.754515     0.438542    0.074896   -0.180410  
      6.249988  7.875317  7.211076    -0.231789    0.202686    0.171332  
      6.984298  7.114573  8.666199    -0.198908    0.166510    0.237939  
 
  11 f  =   30.006915 THz   188.539009 2PiTHz 1000.922925 cm-1   124.098671 meV
             X         Y         Z           dx          dy          dz
      7.112328  7.901355  7.901218     0.401988   -0.172458   -0.293913  
      8.360286  7.781721  7.208940    -0.519586    0.051241    0.288768  
      7.126112  8.877131  8.404414     0.370953    0.006007   -0.182603  
      8.370392  6.923382  6.754515     0.347889    0.125522   -0.107475  
      6.249988  7.875317  7.211076    -0.023552    0.137443    0.065673  
      6.984298  7.114573  8.666199    -0.010043    0.123976    0.088024  
 
  12 f  =    8.333493 THz    52.360878 2PiTHz  277.975382 cm-1    34.464567 meV
             X         Y         Z           dx          dy          dz
      7.112328  7.901355  7.901218    -0.004898    0.008948   -0.011787  
      8.360286  7.781721  7.208940     0.099865   -0.106354    0.198933  
      7.126112  8.877131  8.404414    -0.118884    0.126656   -0.240833  
      8.370392  6.923382  6.754515    -0.345507    0.359603   -0.688547  
      6.249988  7.875317  7.211076     0.012968   -0.250552   -0.006321  
      6.984298  7.114573  8.666199     0.073402    0.164331    0.180440  
 
  13 f  =    0.694878 THz     4.366048 2PiTHz   23.178639 cm-1     2.873786 meV
             X         Y         Z           dx          dy          dz
      7.112328  7.901355  7.901218    -0.102837   -0.433785   -0.037097  
      8.360286  7.781721  7.208940     0.028341    0.663401    0.020780  
      7.126112  8.877131  8.404414    -0.285110   -0.099364   -0.053744  
      8.370392  6.923382  6.754515     0.232406    0.147531    0.044824  
      6.249988  7.875317  7.211076    -0.017029   -0.377431   -0.016995  
      6.984298  7.114573  8.666199     0.166418   -0.124301    0.022971  
 
  14 f  =    0.205207 THz     1.289357 2PiTHz    6.844984 cm-1     0.848670 meV
             X         Y         Z           dx          dy          dz
      7.112328  7.901355  7.901218     0.313812   -0.075967    0.222689  
      8.360286  7.781721  7.208940     0.574421   -0.102051    0.642007  
      7.126112  8.877131  8.404414     0.051341   -0.018613    0.058913  
      8.370392  6.923382  6.754515     0.179138   -0.028721    0.167358  
      6.249988  7.875317  7.211076     0.143503   -0.027080   -0.001724  
      6.984298  7.114573  8.666199     0.032606   -0.017009    0.059614  
 
  15 f  =    0.020606 THz     0.129469 2PiTHz    0.687331 cm-1     0.085218 meV
             X         Y         Z           dx          dy          dz
      7.112328  7.901355  7.901218     0.419094   -0.018935   -0.446072  
      8.360286  7.781721  7.208940     0.488604   -0.000594   -0.509593  
      7.126112  8.877131  8.404414     0.119464   -0.008775   -0.122247  
      8.370392  6.923382  6.754515     0.123545    0.002702   -0.132749  
      6.249988  7.875317  7.211076     0.122064   -0.001484   -0.130290  
      6.984298  7.114573  8.666199     0.120180   -0.010578   -0.134103  
 
  16 f/i=    0.076145 THz     0.478433 2PiTHz    2.539921 cm-1     0.314910 meV
             X         Y         Z           dx          dy          dz
      7.112328  7.901355  7.901218     0.092945    0.662918    0.072301  
      8.360286  7.781721  7.208940     0.075178    0.623312    0.050129  
      7.126112  8.877131  8.404414     0.056041    0.192721    0.017244  
      8.370392  6.923382  6.754515    -0.006404    0.153266    0.016821  
      6.249988  7.875317  7.211076     0.021277    0.211436    0.027023  
      6.984298  7.114573  8.666199     0.011429    0.197418    0.024596  
 
  17 f/i=    0.560358 THz     3.520834 2PiTHz   18.691536 cm-1     2.317456 meV
             X         Y         Z           dx          dy          dz
      7.112328  7.901355  7.901218    -0.401624    0.126044   -0.596432  
      8.360286  7.781721  7.208940     0.090516   -0.039150    0.342296  
      7.126112  8.877131  8.404414    -0.189446    0.041851   -0.180726  
      8.370392  6.923382  6.754515     0.089578   -0.015452    0.097775  
      6.249988  7.875317  7.211076     0.025434    0.054478   -0.349369  
      6.984298  7.114573  8.666199    -0.296968    0.049269   -0.189135  
 
  18 f/i=    1.438530 THz     9.038547 2PiTHz   47.984178 cm-1     5.949282 meV
             X         Y         Z           dx          dy          dz
      7.112328  7.901355  7.901218    -0.027837   -0.161691    0.009905  
      8.360286  7.781721  7.208940     0.049308    0.165064    0.097960  
      7.126112  8.877131  8.404414     0.128845   -0.268475    0.429494  
      8.370392  6.923382  6.754515    -0.116524    0.247393   -0.368035  
      6.249988  7.875317  7.211076     0.028265    0.400941   -0.059286  
      6.984298  7.114573  8.666199    -0.187298   -0.358980   -0.348310  
 
 Finite differences POTIM=  2.000000000000000E-002
     LOOP+:  cpu time   41.1488: real time   41.3311
    4ORBIT:  cpu time    0.0000: real time    0.0000

 total amount of memory used by VASP on root node    91111. kBytes
========================================================================

   base      :      30000. kBytes
   nonl-proj :       1229. kBytes
   fftplans  :      20461. kBytes
   grid      :      39010. kBytes
   one-center:          1. kBytes
   wavefun   :        410. kBytes
 
  
  
 General timing and accounting informations for this job:
 ========================================================
  
                  Total CPU time used (sec):     1492.617
                            User time (sec):     1448.431
                          System time (sec):       44.186
                         Elapsed time (sec):     1501.545
  
                   Maximum memory used (kb):      148924.
                   Average memory used (kb):           0.
  
                          Minor page faults:      9668316
                          Major page faults:            5
                 Voluntary context switches:        17959
